
                                 *****************
                                 * O   R   C   A *
                                 *****************

                                            #,                                       
                                            ###                                      
                                            ####                                     
                                            #####                                    
                                            ######                                   
                                           ########,                                 
                                     ,,################,,,,,                         
                               ,,#################################,,                 
                          ,,##########################################,,             
                       ,#########################################, ''#####,          
                    ,#############################################,,   '####,        
                  ,##################################################,,,,####,       
                ,###########''''           ''''###############################       
              ,#####''   ,,,,##########,,,,          '''####'''          '####       
            ,##' ,,,,###########################,,,                        '##       
           ' ,,###''''                  '''############,,,                           
         ,,##''                                '''############,,,,        ,,,,,,###''
      ,#''                                            '''#######################'''  
     '                                                          ''''####''''         
             ,#######,   #######,   ,#######,      ##                                
            ,#'     '#,  ##    ##  ,#'     '#,    #''#        ,####,   ,####,        
            ##       ##  ##   ,#'  ##            #'  '#       #'       #'  '#        
            ##       ##  #######   ##           ,######,      #####,   #    #        
            '#,     ,#'  ##    ##  '#,     ,#' ,#      #,     #,   #   #,  ,#        
             '#######'   ##     ##  '#######'  #'      '#     '####' # '####'        



                #########################################################
                #                        -***-                          #
                #          Department of theory and spectroscopy        #
                #                                                       #
                #                      Frank Neese                      #
                #                                                       #
                #     Directorship, Architecture, Infrastructure        #
                #                    SHARK, DRIVERS                     #
                #        Core code/Algorithms in most modules           #
                #                                                       #
                #        Max Planck Institute fuer Kohlenforschung      #
                #                Kaiser Wilhelm Platz 1                 #
                #                 D-45470 Muelheim/Ruhr                 #
                #                      Germany                          #
                #                                                       #
                #                  All rights reserved                  #
                #                        -***-                          #
                #########################################################


                         Program Version 6.0.1  -  RELEASE   -


 With contributions from (in alphabetic order):
[Max-Planck-Institut fuer Kohlenforschung]                               
  Daniel Aravena         : Magnetic Suceptibility                        
  Michael Atanasov       : Ab Initio Ligand Field Theory (pilot matlab implementation)
  Alexander A. Auer      : GIAO ZORA, VPT2 properties, NMR spectrum      
  Ute Becker             : All parallelization in ORCA, NUMFREQ, NUMCALC 
  Giovanni Bistoni       : ED, misc. LED, open-shell LED, HFLD           
  Martin Brehm           : Molecular dynamics                            
  Dmytro Bykov           : pre 5.0 version of the SCF Hessian            
  Marcos Casanova-Páez   : Triplet and SCS-CIS(D). UHF-(DLPNO)-IP/EA/STEOM-CCSD. UHF-CVS-IP/STEOM-CCSD   
  Vijay G. Chilkuri      : MRCI spin determinant printing, contributions to CSF-ICE 
  Pauline Colinet        : FMM embedding                                 
  Dipayan Datta          : RHF DLPNO-CCSD density                        
  Achintya Kumar Dutta   : EOM-CC, STEOM-CC                              
  Nicolas Foglia         : Exact transition moments, OPA infrastructure, MCD improvements    
  Dmitry Ganyushin       : Spin-Orbit,Spin-Spin,Magnetic field MRCI      
  Miquel Garcia-Rates    : C-PCM and meta-GGA Hessian, CCSD/C-PCM, Gaussian charge scheme 
  Tiago L. C. Gouveia    : GS-ROHF, GS-ROCIS                             
  Yang Guo               : DLPNO-NEVPT2, F12-NEVPT2, CIM, IAO-localization        
  Andreas Hansen         : Spin unrestricted coupled pair/coupled cluster methods 
  Ingolf Harden          : AUTO-CI MPn and infrastructure                
  Benjamin Helmich-Paris : MC-RPA, TRAH-(SCF,CASSCF), AVAS, COSX integrals, SCF dyn. polar. 
  Lee Huntington         : MR-EOM, pCC                                   
  Robert Izsak           : Overlap fitted RIJCOSX, COSX-SCS-MP3, EOM     
  Riya Kayal             : Wick's Theorem for AUTO-CI, AUTO-CI UHF-CCSDT 
  Emily Kempfer          : AUTO-CI, RHF CISDT and CCSDT                  
  Christian Kollmar      : KDIIS, OOCD, Brueckner-CCSD(T), CCSD density, CASPT2, CASPT2-K, improved NEVPT2 
  Axel Koslowski         : Symmetry handling                             
  Simone Kossmann        : meta-GGA functionals, TD-DFT gradient, OOMP2, (MP2 Hessian; deprecated post 5.0) 
  Lucas Lang             : DCDCAS                                        
  Marvin Lechner         : AUTO-CI (C++ implementation), FIC-MRCC        
  Spencer Leger          : CASSCF response                               
  Dagmar Lenk            : GEPOL surface, SMD, ORCA-2-JSON               
  Dimitrios Liakos       : Extrapolation schemes; Compound Job, initial MDCI parallelization 
  Dimitrios Manganas     : Further ROCIS development; embedding schemes. LFT, Crystal Embedding 
  Dimitrios Pantazis     : SARC Basis sets                               
  Anastasios Papadopoulos: AUTO-CI, single reference methods and gradients 
  Taras Petrenko         : pre 6.0 DFT Hessian and TD-DFT gradient, (ASA, deprecated), ECA, 1-Electron XAS/XES, NRVS 
  Peter Pinski           : DLPNO-MP2, DLPNO-MP2 Gradient                 
  Christoph Reimann      : Effective Core Potentials                     
  Marius Retegan         : Local ZFS, SOC                                
  Christoph Riplinger    : Optimizer, TS searches, QM/MM, DLPNO-CCSD(T), (RO)-DLPNO pert. Triples 
  Michael Roemelt        : Original ROCIS implementation                 
  Masaaki Saitow         : Open-shell DLPNO-CCSD energy and density      
  Barbara Sandhoefer     : DKH picture change effects                    
  Kantharuban Sivalingam : CASSCF convergence/infrastructure, NEVPT2 and variants, FIC-MRCI 
  Bernardo de Souza      : ESD, SOC TD-DFT                               
  Georgi L. Stoychev     : AutoAux, RI-MP2 NMR, DLPNO-MP2 response, X2C  
  Van Anh Tran           : RI-MP2 g-tensors                              
  Willem Van den Heuvel  : Paramagnetic NMR                              
  Zikuan Wang            : NOTCH, Electric field optimization            
  Frank Wennmohs         : Technical directorship and infrastructure     
  Hang Xu                : AUTO-CI-Response properties                   
                                                                         
[FACCTs GmbH]                                                            
  Markus Bursch, Miquel Garcia-Rates, Christoph Riplinger, Bernardo de Souza, Georgi L. Stoychev 
                                                                 
  APM, Basis sets (HGBS, AHGBS, def-TZVP (Ac-Lr), def2-XVPD (La-Lu)), CI-OPT, improved COSX, DLPNO-Multilevel,           
  DOCKER, DRACO, updates on ESD, GOAT, IRC, LR-CPCM, MBIS, meta-GGA TD-DFT gradient, ML-optimized integration grids, 
  MM, NACMEs, nearIR, NEB, NEB-TS, NL-DFT gradient (VV10), 2- and 3-layer-ONIOM, interface openCOSMO-RS, QMMM,   
  Crystal-QMMM, SF, symmetry and pop. for TD-DFT, r2SCAN hybrids, SOLVATOR                                   
                                                                         
[Other institutions]                                                     
  V. Asgeirsson          : NEB                                           
  Christoph Bannwarth    : sTDA-DFT, sTD-DFT, PBEh-3c, B97-3c, D3        
  Sebastian Ehlert       : rSCAN, r2SCAN, r2SCAN-3c, D4, dhf basis sets  
  Marvin Friede          : D4 for Fr, Ra, Ac-Lr                          
  Lars Goerigk           : TD-DFT with DH, B97 family of functionals     
  Stefan Grimme          : VdW corrections, initial TS optimization, DFT functionals, gCP, sTDA/sTD-DF 
  Waldemar Hujo          : DFT-NL                                        
  H. Jonsson             : NEB                                           
  Holger Kruse           : gCP                                           
  Marcel Mueller         : wB97X-3c, vDZP basis set                      
  Hagen Neugebauer       : wr2SCAN                                       
  Tobias Risthaus        : range-separated hybrid DFT                    
  Lukas Wittmann         : regularized MP2, r2SCAN double-hybrids, wr2SCAN        
                                                                         
We gratefully acknowledge several colleagues who have allowed us to      
interface, adapt or use parts of their codes:                            
  Ed Valeev, F. Pavosevic, A. Kumar             : LibInt (2-el integral package), F12 methods 
  Garnet Chan, S. Sharma, J. Yang, R. Olivares  : DMRG                   
  Ulf Ekstrom                                   : XCFun DFT Library      
  Mihaly Kallay                                 : mrcc  (arbitrary order and MRCC methods)
  Frank Weinhold                                : gennbo (NPA and NBO analysis)           
  Simon Mueller                                 : openCOSMO-RS                            
  Christopher J. Cramer and Donald G. Truhlar   : smd solvation model                     
  S Lehtola, MJT Oliveira, MAL Marques          : LibXC Library                           
  Liviu Ungur et al                             : ANISO software                          


 Your calculation uses the libint2 library for the computation of 2-el integrals
 For citations please refer to: http://libint.valeyev.net

 Your ORCA version has been built with support for libXC version: 6.2.2
 For citations please refer to: https://libxc.gitlab.io

 This ORCA versions uses:
   CBLAS   interface :  Fast vector & matrix operations
   LAPACKE interface :  Fast linear algebra routines
   SCALAPACK package :  Parallel linear algebra routines
   Shared memory     :  Shared parallel matrices
   BLAS/LAPACK       :  OpenBLAS 0.3.27  USE64BITINT DYNAMIC_ARCH NO_AFFINITY SkylakeX SINGLE_THREADED
        Core in use  :  SkylakeX
   Copyright (c) 2011-2014, The OpenBLAS Project


Your calculation utilizes the atom-pairwise dispersion correction
based on EEQ partial charges (D4)


================================================================================

cite the ECPs for C  [vDZP-ECP] as follows:
   B-Ne (ecp-2-mwb), Al-Ar (ecp-10-mwb), Ga-Kr (ecp-28-mwb), Y-Cd (ecp-28-mwb), In-Xe (ecp-46-mwb):
     A. Bergner, M. Dolg, W. Küchle, H. Stoll, and H. Preuß, Mol. Phys. 80, 1431 (1993)., T. Leininger, A. Berning, A. Nicklass, H. Stoll, H.-J. Werner, and H.-J.Flad, Chem. Phys. 217, 19 (1997).
   Na-Mg, K-Ca, Rb-Sr, Cs-Ba (CRENBL):
     L. Fernandez Pacios and P. A. Christiansen, J. Chem. Phys. 82, 2664 (1985)., M. M. Hurley, L. F. Pacios, P. A. Christiansen, R. B. Ross, and W. C. Ermler, J. Chem. Phys. 84, 6840 (1986)., L. A. LaJohn, P. A. Christiansen, R. B. Ross, T. Atashroo, and W. C. Ermler, J. Chem. Phys. 87, 2812 (1987)., R. B. Ross, J. M. Powers, T. Atashroo, W. C. Ermler, L. A. LaJohn, and P. A. Christiansen, J. Chem. Phys. 93, 6654 (1990). 
   Sc-Zn (ecp-10-mdf):
     M. Dolg, U. Wedig, H. Stoll, and H. Preuss, J. Chem. Phys. 86, 866 (1986). 
   Y-Cd (ecp-28-mwb), Hf-Hg (ecp-60-mwb):
     D. Andrae, U. Häußermann, M. Dolg, H. Stoll, and H. Preuß, Theor. Chim. Acta 77, 123 (1990). 
   La (ecp-46-mwb):
     M. Dolg, H. Stoll, and H. Preuss, J. Chem. Phys. 90, 1730 (1989)., M. Dolg, H. Stoll, and H. Preuss, Theor. Chim. Acta 85, 441 (1993).
   Ce-Lu (SBKJC-ecp):
     T. R. Cundari and W. J. Stevens, J. Chem. Phys. 98, 5555 (1993).
   Tl-Rn (ecp-78-mwb):
     W. Küchle, M. Dolg, H. Stoll, and H. Preuss, Mol. Phys. 74, 1245 (1991).

ECP parameters for C  [vDZP-ECP] have been obtained from:
MM, AH, SG, J. Chem. Phys. 158, 014103 (2023), 10.1063/5.0133026

----- Orbital basis set information -----
Your calculation utilizes the basis: vDZP
   Marcel Mueller, Andreas Hansen, Stefan Grimme 
   J. Chem. Phys. 158, 014103 (2023). DOI: 10.1063/5.0133026

----- AuxJ basis set information -----
Your calculation utilizes the auxiliary basis: def2/J
   F. Weigend, Phys. Chem. Chem. Phys. 8, 1057 (2006).

================================================================================
                                        WARNINGS
                       Please study these warnings very carefully!
================================================================================

WARNING: Frozen-Core approximation turned on, but there are no core electrons.
  ===> : Turning off frozen-core approximation


WARNING: Geometry Optimization
  ===> : Switching off AutoStart
         For restart on a previous wavefunction, please use MOREAD

================================================================================
                                       INPUT FILE
================================================================================
NAME = ./output/beta_bisabolene/beta_bisabolene.inp
|  1> ! wB97X-3c OPT FREQ TightSCF
|  2> %pal
|  3>   nprocs 40
|  4> end
|  5> * xyz 0 1
|  6> C     -5.315350    -0.350041    -0.886688
|  7> C     -4.110866     0.268103    -0.233119
|  8> C     -3.746409    -0.108762     1.003720
|  9> C     -2.525672     0.497658     1.644471
| 10> C     -1.337024     0.632305     0.649023
| 11> C     -1.770211     0.831561    -0.837001
| 12> C     -3.239018     1.254697    -0.972549
| 13> C     -0.365675    -0.534255     0.784140
| 14> C     -0.766886    -1.795480     0.543352
| 15> C      1.069046    -0.278832     1.190464
| 16> C      1.992642    -0.320878    -0.031636
| 17> C      3.426062    -0.048095     0.355293
| 18> C      4.437266    -0.020310    -0.538433
| 19> C      5.832666     0.261587    -0.044810
| 20> C      4.197963    -0.264044    -2.009749
| 21> H     -5.178332    -1.449463    -0.962945
| 22> H     -5.472958     0.057631    -1.906919
| 23> H     -6.220879    -0.136537    -0.280464
| 24> H     -4.313547    -0.863052     1.542187
| 25> H     -2.808325     1.512034     2.002117
| 26> H     -2.237488    -0.091193     2.542489
| 27> H     -0.802011     1.562619     0.942933
| 28> H     -1.632399    -0.104383    -1.422344
| 29> H     -1.124033     1.601145    -1.313031
| 30> H     -3.376034     2.266601    -0.533086
| 31> H     -3.511952     1.305808    -2.048305
| 32> H     -1.787388    -2.012657     0.245453
| 33> H     -0.075674    -2.627499     0.638690
| 34> H      1.388272    -1.040550     1.936196
| 35> H      1.159126     0.714365     1.681454
| 36> H      1.928862    -1.323817    -0.506685
| 37> H      1.658747     0.446599    -0.763732
| 38> H      3.652812     0.134311     1.403897
| 39> H      6.570459     0.257065    -0.873911
| 40> H      5.863750     1.258932     0.442941
| 41> H      6.133351    -0.512661     0.692543
| 42> H      5.141134    -0.203388    -2.591417
| 43> H      3.767239    -1.275951    -2.161441
| 44> H      3.498736     0.498829    -2.411751
| 45> *
| 46> 
| 47>                          ****END OF INPUT****
================================================================================

                       *****************************
                       * Geometry Optimization Run *
                       *****************************

Geometry optimization settings:
Update method            Update   .... BFGS
Choice of coordinates    CoordSys .... (2022) Redundant Internals
Initial Hessian          InHess   .... Almloef's Model
Max. no of cycles        MaxIter  .... 117

Convergence Tolerances:
Energy Change            TolE     ....  5.0000e-06 Eh
Max. Gradient            TolMAXG  ....  3.0000e-04 Eh/bohr
RMS Gradient             TolRMSG  ....  1.0000e-04 Eh/bohr
Max. Displacement        TolMAXD  ....  4.0000e-03 bohr
RMS Displacement         TolRMSD  ....  2.0000e-03 bohr
Strict Convergence                .... False

------------------------------------------------------------------------------
                        ORCA OPTIMIZATION COORDINATE SETUP
------------------------------------------------------------------------------

The optimization will be done in redundant internal coordinates (2022)
Making redundant internal coordinates   ...  (2022 redundants) done
Evaluating the initial hessian          ...  (Almloef) done
Evaluating the coordinates              ...  done
Calculating the B-matrix                .... done
Calculating the G-matrix                .... done
Diagonalizing the G-matrix              .... done
Small eigenvalue found = 2.490e-03
Small eigenvalue found = 5.783e-03
Small eigenvalue found = 1.302e-02
Small eigenvalue found = 1.828e-02
Small eigenvalue found = 2.191e-02
The first mode is                       ....   76
The number of degrees of freedom        ....  111

    -----------------------------------------------------------------
                    Redundant Internal Coordinates


    -----------------------------------------------------------------
         Definition                    Initial Value    Approx d2E/dq
    -----------------------------------------------------------------
      1. B(C   1,C   0)                  1.5033         0.412011   
      2. B(C   2,C   1)                  1.3434         0.741555   
      3. B(C   3,C   2)                  1.5062         0.407774   
      4. B(C   4,C   3)                  1.5563         0.339226   
      5. B(C   5,C   4)                  1.5606         0.333796   
      6. B(C   6,C   5)                  1.5345         0.367397   
      7. B(C   6,C   1)                  1.5100         0.401986   
      8. B(C   7,C   4)                  1.5240         0.381872   
      9. B(C   8,C   7)                  1.3452         0.736495   
     10. B(C   9,C   7)                  1.5129         0.397844   
     11. B(C  10,C   9)                  1.5324         0.370262   
     12. B(C  11,C  10)                  1.5096         0.402683   
     13. B(C  12,C  11)                  1.3498         0.724137   
     14. B(C  13,C  12)                  1.5067         0.406897   
     15. B(C  14,C  12)                  1.5104         0.401400   
     16. B(H  15,C   0)                  1.1105         0.333918   
     17. B(H  16,C   0)                  1.1099         0.334697   
     18. B(H  17,C   0)                  1.1104         0.334052   
     19. B(H  18,C   2)                  1.0865         0.364721   
     20. B(H  19,C   3)                  1.1121         0.332022   
     21. B(H  20,C   3)                  1.1119         0.332313   
     22. B(H  21,C   4)                  1.1127         0.331286   
     23. B(H  22,C   5)                  1.1125         0.331558   
     24. B(H  23,C   5)                  1.1119         0.332215   
     25. B(H  24,C   6)                  1.1117         0.332522   
     26. B(H  25,C   6)                  1.1110         0.333345   
     27. B(H  26,C   8)                  1.0851         0.366708   
     28. B(H  27,C   8)                  1.0859         0.365602   
     29. B(H  28,C   9)                  1.1128         0.331215   
     30. B(H  29,C   9)                  1.1116         0.332646   
     31. B(H  30,C  10)                  1.1116         0.332646   
     32. B(H  31,C  10)                  1.1120         0.332182   
     33. B(H  32,C  11)                  1.0882         0.362441   
     34. B(H  33,C  13)                  1.1099         0.334775   
     35. B(H  34,C  13)                  1.1107         0.333782   
     36. B(H  35,C  13)                  1.1107         0.333783   
     37. B(H  36,C  14)                  1.1098         0.334875   
     38. B(H  37,C  14)                  1.1102         0.334376   
     39. B(H  38,C  14)                  1.1102         0.334370   
     40. A(H  15,C   0,H  17)          109.1742         0.284077   
     41. A(C   1,C   0,H  15)          109.7588         0.325517   
     42. A(C   1,C   0,H  16)          111.2453         0.325642   
     43. A(H  15,C   0,H  16)          108.5434         0.284162   
     44. A(C   1,C   0,H  17)          109.6917         0.325539   
     45. A(H  16,C   0,H  17)          108.3851         0.284180   
     46. A(C   0,C   1,C   2)          120.1514         0.416589   
     47. A(C   2,C   1,C   6)          118.5219         0.414768   
     48. A(C   0,C   1,C   6)          121.2216         0.374193   
     49. A(C   1,C   2,C   3)          119.9090         0.415823   
     50. A(C   3,C   2,H  18)          119.4548         0.329724   
     51. A(C   1,C   2,H  18)          120.6258         0.364617   
     52. A(C   4,C   3,H  20)          111.3754         0.315090   
     53. A(C   2,C   3,H  19)          107.3414         0.324661   
     54. A(H  19,C   3,H  20)          106.8103         0.283595   
     55. A(C   2,C   3,H  20)          109.9037         0.324707   
     56. A(C   4,C   3,H  19)          108.7183         0.315046   
     57. A(C   2,C   3,C   4)          112.4431         0.362802   
     58. A(C   7,C   4,H  21)          108.0656         0.321069   
     59. A(C   3,C   4,C   7)          111.3381         0.358765   
     60. A(C   5,C   4,C   7)          111.0424         0.357782   
     61. A(C   3,C   4,H  21)          105.7017         0.314932   
     62. A(C   5,C   4,H  21)          106.1543         0.314108   
     63. A(C   3,C   4,C   5)          114.0856         0.350673   
     64. A(C   4,C   5,C   6)          112.6432         0.355441   
     65. A(C   6,C   5,H  23)          109.1217         0.319194   
     66. A(H  22,C   5,H  23)          106.5612         0.283521   
     67. A(C   4,C   5,H  23)          109.5543         0.314251   
     68. A(C   6,C   5,H  22)          107.7028         0.319091   
     69. A(C   4,C   5,H  22)          111.0512         0.314150   
     70. A(H  24,C   6,H  25)          108.0962         0.283798   
     71. A(C   5,C   6,H  25)          109.4723         0.319371   
     72. A(C   1,C   6,H  25)          111.2448         0.324111   
     73. A(C   5,C   6,H  24)          109.5144         0.319243   
     74. A(C   1,C   6,H  24)          109.2672         0.323979   
     75. A(C   1,C   6,C   5)          109.2216         0.366890   
     76. A(C   8,C   7,C   9)          119.2885         0.413502   
     77. A(C   4,C   7,C   9)          119.9349         0.368675   
     78. A(C   4,C   7,C   8)          120.7765         0.410506   
     79. A(H  26,C   8,H  27)          117.9970         0.292369   
     80. A(C   7,C   8,H  27)          120.8512         0.364340   
     81. A(C   7,C   8,H  26)          121.1515         0.364529   
     82. A(H  28,C   9,H  29)          106.9995         0.283532   
     83. A(C  10,C   9,H  29)          109.1431         0.319667   
     84. A(C   7,C   9,H  29)          110.2633         0.323449   
     85. A(C  10,C   9,H  28)          110.0456         0.319442   
     86. A(C   7,C   9,H  28)          109.6625         0.323220   
     87. A(C   7,C   9,C  10)          110.6555         0.366727   
     88. A(C   9,C  10,C  11)          111.2801         0.367488   
     89. A(H  30,C  10,H  31)          108.9136         0.283661   
     90. A(C  11,C  10,H  31)          109.2178         0.324017   
     91. A(C   9,C  10,H  31)          108.9741         0.319594   
     92. A(C  11,C  10,H  30)          109.0906         0.324091   
     93. A(C   9,C  10,H  30)          109.3290         0.319667   
     94. A(C  12,C  11,H  32)          118.5839         0.362749   
     95. A(C  10,C  11,H  32)          118.3674         0.328701   
     96. A(C  10,C  11,C  12)          123.0487         0.413147   
     97. A(C  13,C  12,C  14)          119.7382         0.373294   
     98. A(C  11,C  12,C  14)          121.5297         0.412913   
     99. A(C  11,C  12,C  13)          118.7321         0.413912   
    100. A(H  33,C  13,H  34)          108.2473         0.284154   
    101. A(C  12,C  13,H  34)          109.7425         0.324828   
    102. A(C  12,C  13,H  33)          111.7246         0.324987   
    103. A(H  34,C  13,H  35)          109.0782         0.284023   
    104. A(H  33,C  13,H  35)          108.2485         0.284154   
    105. A(C  12,C  13,H  35)          109.7426         0.324828   
    106. A(H  37,C  14,H  38)          109.4205         0.284179   
    107. A(H  36,C  14,H  38)          107.9347         0.284245   
    108. A(C  12,C  14,H  38)          109.9760         0.324197   
    109. A(H  36,C  14,H  37)          107.9349         0.284246   
    110. A(C  12,C  14,H  37)          109.9774         0.324198   
    111. A(C  12,C  14,H  36)          111.5361         0.324277   
    112. D(C   2,C   1,C   0,H  16)   -179.2574         0.012568   
    113. D(C   6,C   1,C   0,H  16)     -3.0399         0.012568   
    114. D(C   6,C   1,C   0,H  15)    117.1067         0.012568   
    115. D(C   2,C   1,C   0,H  15)    -59.1109         0.012568   
    116. D(C   2,C   1,C   0,H  17)     60.8378         0.012568   
    117. D(H  18,C   2,C   1,C   6)   -176.1429         0.039132   
    118. D(H  18,C   2,C   1,C   0)      0.1757         0.039132   
    119. D(C   3,C   2,C   1,C   6)      2.6808         0.039132   
    120. D(C   3,C   2,C   1,C   0)    178.9995         0.039132   
    121. D(C   4,C   3,C   2,H  18)    136.9395         0.012320   
    122. D(H  19,C   3,C   2,H  18)   -103.5407         0.012320   
    123. D(H  20,C   3,C   2,C   1)   -166.5751         0.012320   
    124. D(H  19,C   3,C   2,C   1)     77.6218         0.012320   
    125. D(C   4,C   3,C   2,C   1)    -41.8981         0.012320   
    126. D(C   5,C   4,C   3,C   2)     29.4939         0.009321   
    127. D(C   7,C   4,C   3,H  20)     26.7109         0.009321   
    128. D(C   7,C   4,C   3,H  19)    144.1323         0.009321   
    129. D(C   7,C   4,C   3,C   2)    -97.1525         0.009321   
    130. D(C   5,C   4,C   3,H  20)    153.3573         0.009321   
    131. D(C   5,C   4,C   3,H  19)    -89.2213         0.009321   
    132. D(H  22,C   5,C   4,H  21)    139.6234         0.009053   
    133. D(H  22,C   5,C   4,C   7)     22.4067         0.009053   
    134. D(H  22,C   5,C   4,C   3)   -104.3934         0.009053   
    135. D(C   6,C   5,C   4,H  21)    -99.4731         0.009053   
    136. D(C   6,C   5,C   4,C   7)    143.3102         0.009053   
    137. D(C   6,C   5,C   4,C   3)     16.5101         0.009053   
    138. D(H  24,C   6,C   1,C   2)    -73.7044         0.011987   
    139. D(H  25,C   6,C   1,C   0)     -9.2524         0.011987   
    140. D(H  24,C   6,C   1,C   0)    110.0180         0.011987   
    141. D(C   5,C   6,C   1,C   2)     46.0729         0.011987   
    142. D(C   5,C   6,C   1,C   0)   -130.2047         0.011987   
    143. D(H  24,C   6,C   5,H  23)    -55.9565         0.010800   
    144. D(H  24,C   6,C   5,H  22)   -171.2558         0.010800   
    145. D(H  24,C   6,C   5,C   4)     65.9448         0.010800   
    146. D(C   1,C   6,C   5,H  23)   -175.5813         0.010800   
    147. D(C   1,C   6,C   5,H  22)     69.1194         0.010800   
    148. D(C   1,C   6,C   5,C   4)    -53.6800         0.010800   
    149. D(C   9,C   7,C   4,C   5)    113.1703         0.010875   
    150. D(C   9,C   7,C   4,C   3)   -118.5334         0.010875   
    151. D(C   8,C   7,C   4,H  21)    177.2618         0.010875   
    152. D(C   8,C   7,C   4,C   5)    -66.6949         0.010875   
    153. D(C   8,C   7,C   4,C   3)     61.6014         0.010875   
    154. D(H  27,C   8,C   7,C   9)      0.0979         0.038550   
    155. D(H  27,C   8,C   7,C   4)    179.9640         0.038550   
    156. D(H  26,C   8,C   7,C   9)   -179.6979         0.038550   
    157. D(H  26,C   8,C   7,C   4)      0.1681         0.038550   
    158. D(H  29,C   9,C   7,C   4)     19.5820         0.011752   
    159. D(H  28,C   9,C   7,C   8)    -42.9788         0.011752   
    160. D(H  28,C   9,C   7,C   4)    137.1540         0.011752   
    161. D(C  10,C   9,C   7,C   8)     78.6018         0.011752   
    162. D(C  10,C   9,C   7,C   4)   -101.2653         0.011752   
    163. D(H  30,C  10,C   9,H  29)    178.2498         0.010958   
    164. D(H  30,C  10,C   9,H  28)     61.1148         0.010958   
    165. D(H  30,C  10,C   9,C   7)    -60.2399         0.010958   
    166. D(C  11,C  10,C   9,H  29)     57.6807         0.010958   
    167. D(C  11,C  10,C   9,H  28)    -59.4543         0.010958   
    168. D(C  11,C  10,C   9,C   7)    179.1910         0.010958   
    169. D(H  32,C  11,C  10,H  30)   -120.3050         0.012027   
    170. D(H  32,C  11,C  10,C   9)      0.4043         0.012027   
    171. D(C  12,C  11,C  10,H  31)    -59.2504         0.012027   
    172. D(C  12,C  11,C  10,H  30)     59.6896         0.012027   
    173. D(C  12,C  11,C  10,C   9)   -179.6011         0.012027   
    174. D(C  13,C  12,C  11,C  10)   -179.9934         0.037151   
    175. D(C  14,C  12,C  11,H  32)   -179.9910         0.037151   
    176. D(C  14,C  12,C  11,C  10)      0.0144         0.037151   
    177. D(C  13,C  12,C  11,H  32)      0.0012         0.037151   
    178. D(H  35,C  13,C  12,C  11)     59.9345         0.012269   
    179. D(H  34,C  13,C  12,C  14)    120.0749         0.012269   
    180. D(H  34,C  13,C  12,C  11)    -59.9175         0.012269   
    181. D(H  33,C  13,C  12,C  14)      0.0017         0.012269   
    182. D(H  33,C  13,C  12,C  11)   -179.9906         0.012269   
    183. D(H  38,C  14,C  12,C  11)     60.3266         0.011954   
    184. D(H  37,C  14,C  12,C  13)    119.7656         0.011954   
    185. D(H  37,C  14,C  12,C  11)    -60.2423         0.011954   
    186. D(H  36,C  14,C  12,C  13)      0.0494         0.011954   
    187. D(H  36,C  14,C  12,C  11)   -179.9585         0.011954   
    -----------------------------------------------------------------

Number of atoms                         .... 39
Number of degrees of freedom            .... 187


         *************************************************************
         *                GEOMETRY OPTIMIZATION CYCLE   1            *
         *************************************************************
---------------------------------
CARTESIAN COORDINATES (ANGSTROEM)
---------------------------------
  C     -5.315350   -0.350041   -0.886688
  C     -4.110866    0.268103   -0.233119
  C     -3.746409   -0.108762    1.003720
  C     -2.525672    0.497658    1.644471
  C     -1.337024    0.632305    0.649023
  C     -1.770211    0.831561   -0.837001
  C     -3.239018    1.254697   -0.972549
  C     -0.365675   -0.534255    0.784140
  C     -0.766886   -1.795480    0.543352
  C      1.069046   -0.278832    1.190464
  C      1.992642   -0.320878   -0.031636
  C      3.426062   -0.048095    0.355293
  C      4.437266   -0.020310   -0.538433
  C      5.832666    0.261587   -0.044810
  C      4.197963   -0.264044   -2.009749
  H     -5.178332   -1.449463   -0.962945
  H     -5.472958    0.057631   -1.906919
  H     -6.220879   -0.136537   -0.280464
  H     -4.313547   -0.863052    1.542187
  H     -2.808325    1.512034    2.002117
  H     -2.237488   -0.091193    2.542489
  H     -0.802011    1.562619    0.942933
  H     -1.632399   -0.104383   -1.422344
  H     -1.124033    1.601145   -1.313031
  H     -3.376034    2.266601   -0.533086
  H     -3.511952    1.305808   -2.048305
  H     -1.787388   -2.012657    0.245453
  H     -0.075674   -2.627499    0.638690
  H      1.388272   -1.040550    1.936196
  H      1.159126    0.714365    1.681454
  H      1.928862   -1.323817   -0.506685
  H      1.658747    0.446599   -0.763732
  H      3.652812    0.134311    1.403897
  H      6.570459    0.257065   -0.873911
  H      5.863750    1.258932    0.442941
  H      6.133351   -0.512661    0.692543
  H      5.141134   -0.203388   -2.591417
  H      3.767239   -1.275951   -2.161441
  H      3.498736    0.498829   -2.411751

----------------------------
CARTESIAN COORDINATES (A.U.)
----------------------------
  NO LB      ZA    FRAG     MASS         X           Y           Z
   0 C     4.0000*   0    12.011  -10.044556   -0.661482   -1.675597
   1 C     4.0000*   0    12.011   -7.768411    0.506641   -0.440531
   2 C     4.0000*   0    12.011   -7.079687   -0.205530    1.896756
   3 C     4.0000*   0    12.011   -4.772828    0.940437    3.107600
   4 C     4.0000*   0    12.011   -2.526609    1.194883    1.226476
   5 C     4.0000*   0    12.011   -3.345214    1.571423   -1.581703
   6 C     4.0000*   0    12.011   -6.120857    2.371034   -1.837851
   7 C     4.0000*   0    12.011   -0.691026   -1.009596    1.481810
   8 C     4.0000*   0    12.011   -1.449205   -3.392965    1.026786
   9 C     4.0000*   0    12.011    2.020204   -0.526916    2.249651
  10 C     4.0000*   0    12.011    3.765548   -0.606372   -0.059783
  11 C     4.0000*   0    12.011    6.474319   -0.090886    0.671406
  12 C     4.0000*   0    12.011    8.385218   -0.038380   -1.017491
  13 C     4.0000*   0    12.011   11.022141    0.494328   -0.084679
  14 C     4.0000*   0    12.011    7.933000   -0.498971   -3.797875
  15 H     1.0000    0     1.008   -9.785629   -2.739088   -1.819702
  16 H     1.0000    0     1.008  -10.342392    0.108907   -3.603555
  17 H     1.0000    0     1.008  -11.755758   -0.258018   -0.530000
  18 H     1.0000    0     1.008   -8.151422   -1.630932    2.914311
  19 H     1.0000    0     1.008   -5.306965    2.857330    3.783453
  20 H     1.0000    0     1.008   -4.228240   -0.172330    4.804608
  21 H     1.0000    0     1.008   -1.515581    2.952922    1.781885
  22 H     1.0000    0     1.008   -3.084787   -0.197255   -2.687841
  23 H     1.0000    0     1.008   -2.124115    3.025726   -2.481269
  24 H     1.0000    0     1.008   -6.379780    4.283255   -1.007387
  25 H     1.0000    0     1.008   -6.636627    2.467620   -3.870735
  26 H     1.0000    0     1.008   -3.377674   -3.803371    0.463839
  27 H     1.0000    0     1.008   -0.143003   -4.965254    1.206949
  28 H     1.0000    0     1.008    2.623454   -1.966355    3.658880
  29 H     1.0000    0     1.008    2.190431    1.349954    3.177488
  30 H     1.0000    0     1.008    3.645021   -2.501652   -0.957496
  31 H     1.0000    0     1.008    3.134578    0.843950   -1.443244
  32 H     1.0000    0     1.008    6.902814    0.253811    2.652981
  33 H     1.0000    0     1.008   12.416368    0.485782   -1.651452
  34 H     1.0000    0     1.008   11.080882    2.379037    0.837037
  35 H     1.0000    0     1.008   11.590354   -0.968789    1.308717
  36 H     1.0000    0     1.008    9.715335   -0.384348   -4.897068
  37 H     1.0000    0     1.008    7.119050   -2.411198   -4.084532
  38 H     1.0000    0     1.008    6.611653    0.942650   -4.557549
* core charge reduced due to ECP

--------------------------------
INTERNAL COORDINATES (ANGSTROEM)
--------------------------------
 C      0   0   0     0.000000000000     0.00000000     0.00000000
 C      1   0   0     1.503341660686     0.00000000     0.00000000
 C      2   1   0     1.343364003163   120.15139624     0.00000000
 C      3   2   1     1.506155995762   119.90899665   178.99952091
 C      4   3   2     1.556255314278   112.44310101   318.10190393
 C      5   4   3     1.560647704987   114.08559908    29.49387590
 C      2   1   3     1.510047476353   121.22164684   176.21751511
 C      5   4   3     1.524020248255   111.33811691   262.84747907
 C      8   5   4     1.345227723506   120.77648931    61.60143420
 C      8   5   4     1.512866302667   119.93489584   241.46658086
 C     10   8   5     1.532424825997   110.65548236   258.73466869
 C     11  10   8     1.509575275543   111.28013478   179.19103527
 C     12  11  10     1.349833952350   123.04872624   180.39894067
 C     13  12  11     1.506741764450   118.73211294   180.00663885
 C     13  12  11     1.510444623421   121.52970588     0.00000000
 H      1   2   3     1.110548421482   109.75878733   300.88913531
 H      1   2   3     1.109913525735   111.24525028   180.74261644
 H      1   2   3     1.110438771852   109.69174056    60.83776951
 H      3   2   1     1.086529164465   120.62582058     0.17574582
 H      4   3   2     1.112098039339   107.34135230    77.62175027
 H      4   3   2     1.111859634298   109.90366030   193.42493347
 H      5   4   3     1.112702177973   105.70168740   145.74057887
 H      6   5   4     1.112479099187   111.05122225   255.60659027
 H      6   5   4     1.111939792273   109.55429345   138.16633181
 H      7   2   1     1.111688273682   109.26723811   110.01799353
 H      7   2   1     1.111015874870   111.24478285   350.74758997
 H      9   8   5     1.085050227194   121.15152568     0.16811645
 H      9   8   5     1.085872450866   120.85118637   179.96395180
 H     10   8   5     1.112760426338   109.66252116   137.15400793
 H     10   8   5     1.111587093893   110.26332798    19.58198777
 H     11  10   8     1.111587188898   109.32900943   299.76012779
 H     11  10   8     1.111967342043   108.97407374    58.69666754
 H     12  11  10     1.088236123345   118.36738511     0.40434265
 H     14  13  12     1.109850182472   111.72457828   180.00935500
 H     14  13  12     1.110659399673   109.74245063   300.08254766
 H     14  13  12     1.110657859711   109.74261633    59.93452025
 H     15  13  12     1.109769502104   111.53614916   180.04151360
 H     15  13  12     1.110175393210   109.97735518   299.75772669
 H     15  13  12     1.110179814112   109.97597989    60.32655625

---------------------------
INTERNAL COORDINATES (A.U.)
---------------------------
 C      0   0   0     0.000000000000     0.00000000     0.00000000
 C      1   0   0     2.840904024410     0.00000000     0.00000000
 C      2   1   0     2.538590064147   120.15139624     0.00000000
 C      3   2   1     2.846222346954   119.90899665   178.99952091
 C      4   3   2     2.940896338444   112.44310101   318.10190393
 C      5   4   3     2.949196753958   114.08559908    29.49387590
 C      2   1   3     2.853576179526   121.22164684   176.21751511
 C      5   4   3     2.879980891752   111.33811691   262.84747907
 C      8   5   4     2.542111985185   120.77648931    61.60143420
 C      8   5   4     2.858902989279   119.93489584   241.46658086
 C     10   8   5     2.895863241956   110.65548236   258.73466869
 C     11  10   8     2.852683849315   111.28013478   179.19103527
 C     12  11  10     2.550816496210   123.04872624   180.39894067
 C     13  12  11     2.847329289352   118.73211294   180.00663885
 C     13  12  11     2.854326678719   121.52970588     0.00000000
 H      1   2   3     2.098632375060   109.75878733   300.88913531
 H      1   2   3     2.097432595974   111.24525028   180.74261644
 H      1   2   3     2.098425167289   109.69174056    60.83776951
 H      3   2   1     2.053242557357   120.62582058     0.17574582
 H      4   3   2     2.101560728421   107.34135230    77.62175027
 H      4   3   2     2.101110208185   109.90366030   193.42493347
 H      5   4   3     2.102702384986   105.70168740   145.74057887
 H      6   5   4     2.102280827176   111.05122225   255.60659027
 H      6   5   4     2.101261684805   109.55429345   138.16633181
 H      7   2   1     2.100786383550   109.26723811   110.01799353
 H      7   2   1     2.099515733943   111.24478285   350.74758997
 H      9   8   5     2.050447770946   121.15152568     0.16811645
 H      9   8   5     2.052001548506   120.85118637   179.96395180
 H     10   8   5     2.102812458444   109.66252116   137.15400793
 H     10   8   5     2.100595181459   110.26332798    19.58198777
 H     11  10   8     2.100595360992   109.32900943   299.76012779
 H     11  10   8     2.101313746325   108.97407374    58.69666754
 H     12  11  10     2.056468242161   118.36738511     0.40434265
 H     14  13  12     2.097312894555   111.72457828   180.00935500
 H     14  13  12     2.098842093447   109.74245063   300.08254766
 H     14  13  12     2.098839183341   109.74261633    59.93452025
 H     15  13  12     2.097160430755   111.53614916   180.04151360
 H     15  13  12     2.097927453785   109.97735518   299.75772669
 H     15  13  12     2.097935808079   109.97597989    60.32655625

---------------------
BASIS SET INFORMATION
---------------------
There are 2 groups of distinct atoms

 Group   1 Type C   : 6s6p2d contracted to 2s2p1d pattern {42/42/2}
 Group   2 Type H   : 8s2p contracted to 2s1p pattern {53/2}

Atom   0C    basis set group =>   1
Atom   1C    basis set group =>   1
Atom   2C    basis set group =>   1
Atom   3C    basis set group =>   1
Atom   4C    basis set group =>   1
Atom   5C    basis set group =>   1
Atom   6C    basis set group =>   1
Atom   7C    basis set group =>   1
Atom   8C    basis set group =>   1
Atom   9C    basis set group =>   1
Atom  10C    basis set group =>   1
Atom  11C    basis set group =>   1
Atom  12C    basis set group =>   1
Atom  13C    basis set group =>   1
Atom  14C    basis set group =>   1
Atom  15H    basis set group =>   2
Atom  16H    basis set group =>   2
Atom  17H    basis set group =>   2
Atom  18H    basis set group =>   2
Atom  19H    basis set group =>   2
Atom  20H    basis set group =>   2
Atom  21H    basis set group =>   2
Atom  22H    basis set group =>   2
Atom  23H    basis set group =>   2
Atom  24H    basis set group =>   2
Atom  25H    basis set group =>   2
Atom  26H    basis set group =>   2
Atom  27H    basis set group =>   2
Atom  28H    basis set group =>   2
Atom  29H    basis set group =>   2
Atom  30H    basis set group =>   2
Atom  31H    basis set group =>   2
Atom  32H    basis set group =>   2
Atom  33H    basis set group =>   2
Atom  34H    basis set group =>   2
Atom  35H    basis set group =>   2
Atom  36H    basis set group =>   2
Atom  37H    basis set group =>   2
Atom  38H    basis set group =>   2
---------------------------------
AUXILIARY/J BASIS SET INFORMATION
---------------------------------
There are 2 groups of distinct atoms

 Group   1 Type C   : 12s5p4d2f1g contracted to 6s4p3d1f1g pattern {711111/2111/211/2/1}
 Group   2 Type H   : 5s2p1d contracted to 3s1p1d pattern {311/2/1}

Atom   0C    basis set group =>   1
Atom   1C    basis set group =>   1
Atom   2C    basis set group =>   1
Atom   3C    basis set group =>   1
Atom   4C    basis set group =>   1
Atom   5C    basis set group =>   1
Atom   6C    basis set group =>   1
Atom   7C    basis set group =>   1
Atom   8C    basis set group =>   1
Atom   9C    basis set group =>   1
Atom  10C    basis set group =>   1
Atom  11C    basis set group =>   1
Atom  12C    basis set group =>   1
Atom  13C    basis set group =>   1
Atom  14C    basis set group =>   1
Atom  15H    basis set group =>   2
Atom  16H    basis set group =>   2
Atom  17H    basis set group =>   2
Atom  18H    basis set group =>   2
Atom  19H    basis set group =>   2
Atom  20H    basis set group =>   2
Atom  21H    basis set group =>   2
Atom  22H    basis set group =>   2
Atom  23H    basis set group =>   2
Atom  24H    basis set group =>   2
Atom  25H    basis set group =>   2
Atom  26H    basis set group =>   2
Atom  27H    basis set group =>   2
Atom  28H    basis set group =>   2
Atom  29H    basis set group =>   2
Atom  30H    basis set group =>   2
Atom  31H    basis set group =>   2
Atom  32H    basis set group =>   2
Atom  33H    basis set group =>   2
Atom  34H    basis set group =>   2
Atom  35H    basis set group =>   2
Atom  36H    basis set group =>   2
Atom  37H    basis set group =>   2
Atom  38H    basis set group =>   2
-------------------------
ECP PARAMETER INFORMATION
-------------------------

 Group 1, Type C  ECP vDZP-ECP (replacing 2 core electrons, lmax=3)

Atom   0C    ECP group =>   1
Atom   1C    ECP group =>   1
Atom   2C    ECP group =>   1
Atom   3C    ECP group =>   1
Atom   4C    ECP group =>   1
Atom   5C    ECP group =>   1
Atom   6C    ECP group =>   1
Atom   7C    ECP group =>   1
Atom   8C    ECP group =>   1
Atom   9C    ECP group =>   1
Atom  10C    ECP group =>   1
Atom  11C    ECP group =>   1
Atom  12C    ECP group =>   1
Atom  13C    ECP group =>   1
Atom  14C    ECP group =>   1



           ************************************************************
           *        Program running with 40 parallel MPI-processes    *
           *              working on a common directory               *
           ************************************************************
------------------------------------------------------------------------------
                             ORCA STARTUP CALCULATIONS
                           -- RI-GTO INTEGRALS CHOSEN --
------------------------------------------------------------------------------
------------------------------------------------------------------------------
                   ___                                                        
                  /   \      - P O W E R E D   B Y -                         
                 /     \                                                     
                 |  |  |   _    _      __       _____    __    __             
                 |  |  |  | |  | |    /  \     |  _  \  |  |  /  |          
                  \  \/   | |  | |   /    \    | | | |  |  | /  /          
                 / \  \   | |__| |  /  /\  \   | |_| |  |  |/  /          
                |  |  |   |  __  | /  /__\  \  |    /   |      \           
                |  |  |   | |  | | |   __   |  |    \   |  |\   \          
                \     /   | |  | | |  |  |  |  | |\  \  |  | \   \       
                 \___/    |_|  |_| |__|  |__|  |_| \__\ |__|  \__/        
                                                                              
                      - O R C A' S   B I G   F R I E N D -                    
                                      &                                       
                       - I N T E G R A L  F E E D E R -                       
                                                                              
 v1 FN, 2020, v2 2021, v3 2022-2024                                           
------------------------------------------------------------------------------


----------------------
SHARK INTEGRAL PACKAGE
----------------------

Number of atoms                             ...     39
Number of basis functions                   ...    315
Number of shells                            ...    147
Maximum angular momentum                    ...      2
Integral batch strategy                     ... SHARK/LIBINT Hybrid
RI-J (if used) integral strategy            ... SPLIT-RIJ (Revised 2003 algorithm where possible)
Printlevel                                  ...      1
Contraction scheme used                     ... SEGMENTED contraction
Prescreening option                         ... SCHWARTZ
   Thresh                                   ... 2.500e-11
   Tcut                                     ... 2.500e-12
   Tpresel                                  ... 2.500e-12 
Coulomb Range Separation                    ... NOT USED
Exchange Range Separation                   ... Long Range
   Mu parameter                             ... 3.000e-01
   Scaling (regular/separated)              ... 1.670e-01 8.330e-01
Multipole approximations                    ... NOT USED
Finite Nucleus Model                        ... NOT USED
CABS basis                                  ... NOT available
Auxiliary Coulomb fitting basis             ... AVAILABLE
   # of basis functions in Aux-J            ...    999
   # of shells in Aux-J                     ...    345
   Maximum angular momentum in Aux-J        ...      4
Auxiliary J/K fitting basis                 ... NOT available
Auxiliary Correlation fitting basis         ... NOT available
Auxiliary 'external' fitting basis          ... NOT available

Checking pre-screening integrals            ... done (  0.0 sec) Dimension = 147
Check shell pair data                       ... done (  0.0 sec)
Shell pair information
Shell pair cut-off parameter TPreSel        ...   2.5e-12
Total number of shell pairs                 ...     10878
Shell pairs after pre-screening             ...     10174
Total number of primitive shell pairs       ...    102036
Primitive shell pairs kept                  ...     69085
          la=0 lb=0:   2967 shell pairs
          la=1 lb=0:   3949 shell pairs
          la=1 lb=1:   1312 shell pairs
          la=2 lb=0:   1108 shell pairs
          la=2 lb=1:    729 shell pairs
          la=2 lb=2:    109 shell pairs

Calculating one electron integrals          ... done (  0.0 sec)
Calculating ECP integrals                   ... done (  0.2 sec)
Calculating RI/J V-Matrix + Cholesky decomp.... done (  0.0 sec)
Calculating Nuclear repulsion               ... done (  0.0 sec) ENN=    517.102311446151 Eh

Diagonalization of the overlap matrix:
Smallest eigenvalue                        ... 9.266e-04
Time for diagonalization                   ...    0.014 sec
Threshold for overlap eigenvalues          ... 1.000e-07
Number of eigenvalues below threshold      ... 0
Time for construction of square roots      ...    0.008 sec
Total time needed                          ...    0.024 sec

-------------------
DFT GRID GENERATION
-------------------

General Integration Accuracy     IntAcc      ... 4.388
Radial Grid Type                 RadialGrid  ... OptM3 with GC (2021)
Angular Grid (max. ang.)         AngularGrid ... 4 (Lebedev-302)
Angular grid pruning method      GridPruning ... 4 (adaptive)
Weight generation scheme         WeightScheme... mBecke (2022)
Basis function cutoff            BFCut       ... 1.0000e-11
Integration weight cutoff        WCut        ... 1.0000e-14
Partially contracted basis set               ... off
Rotationally invariant grid construction     ... off
Angular grids for H and He will be reduced by one unit

Total number of grid points                  ...   165829
Total number of batches                      ...     2612
Average number of points per batch           ...       63
Average number of grid points per atom       ...     4252

--------------------
COSX GRID GENERATION
--------------------

GRIDX 1
-------
General Integration Accuracy     IntAcc      ... 3.816
Radial Grid Type                 RadialGrid  ... OptM3 with GC (2021)
Angular Grid (max. ang.)         AngularGrid ... 1 (Lebedev-50)
Angular grid pruning method      GridPruning ... 4 (adaptive)
Weight generation scheme         WeightScheme... mBecke (2022)
Basis function cutoff            BFCut       ... 1.0000e-11
Integration weight cutoff        WCut        ... 1.0000e-14
Partially contracted basis set               ... on
Rotationally invariant grid construction     ... off
Angular grids for H and He will be reduced by one unit

Total number of grid points                  ...    21190
Total number of batches                      ...      193
Average number of points per batch           ...      109
Average number of grid points per atom       ...      543
UseSFitting                                  ... on

GRIDX 2
-------
General Integration Accuracy     IntAcc      ... 4.020
Radial Grid Type                 RadialGrid  ... OptM3 with GC (2021)
Angular Grid (max. ang.)         AngularGrid ... 2 (Lebedev-110)
Angular grid pruning method      GridPruning ... 4 (adaptive)
Weight generation scheme         WeightScheme... mBecke (2022)
Basis function cutoff            BFCut       ... 1.0000e-11
Integration weight cutoff        WCut        ... 1.0000e-14
Partially contracted basis set               ... on
Rotationally invariant grid construction     ... off
Angular grids for H and He will be reduced by one unit

Total number of grid points                  ...    44038
Total number of batches                      ...      363
Average number of points per batch           ...      121
Average number of grid points per atom       ...     1129
UseSFitting                                  ... on

GRIDX 3
-------
General Integration Accuracy     IntAcc      ... 4.338
Radial Grid Type                 RadialGrid  ... OptM3 with GC (2021)
Angular Grid (max. ang.)         AngularGrid ... 3 (Lebedev-194)
Angular grid pruning method      GridPruning ... 4 (adaptive)
Weight generation scheme         WeightScheme... mBecke (2022)
Basis function cutoff            BFCut       ... 1.0000e-11
Integration weight cutoff        WCut        ... 1.0000e-14
Partially contracted basis set               ... on
Rotationally invariant grid construction     ... off
Angular grids for H and He will be reduced by one unit

Total number of grid points                  ...    95695
Total number of batches                      ...      769
Average number of points per batch           ...      124
Average number of grid points per atom       ...     2454
UseSFitting                                  ... on
Initializing property integral containers    ... done (  0.0 sec)

SHARK setup successfully completed in   5.2 seconds

Maximum memory used throughout the entire STARTUP-calculation: 49.8 MB


           ************************************************************
           *        Program running with 40 parallel MPI-processes    *
           *              working on a common directory               *
           ************************************************************
-------------------------------------------------------------------------------
                                 ORCA GUESS
                   Start orbitals & Density for SCF / CASSCF
-------------------------------------------------------------------------------

------------
SCF SETTINGS
------------
Hamiltonian:
 Density Functional     Method          .... DFT(GTOs)
 Exchange Functional    Exchange        .... WB97X-V
 Correlation Functional Correlation     .... WB97X-V
 Gradients option       PostSCFGGA      .... off
 Hybrid DFT is turned on
   Fraction HF Exchange ScalHFX         ....  0.167000
   Scaling of DF-GGA-X  ScalDFX         ....  0.000000
   Scaling of DF-GGA-C  ScalDFC         ....  1.000000
   Scaling of DF-LDA-C  ScalLDAC        ....  1.000000
   Perturbative correction              ....  0.000000
 Long-range corrected/Screened/Range-Separated Hybrid DFT is turned on
   Amount of maximum screened exact exchange              ....  0.833000
   Range separation parameter mu (erf(mu*r12)/r12)        ....  0.300000
   NL short-range parameter             ....  6.000000
   NL long-range parameter              ....  0.010000
 RI-approximation to the Coulomb term is turned on
   Number of AuxJ basis functions       .... 999
   RIJ-COSX (HFX calculated with COS-X)).... on


General Settings:
 Integral files         IntName         .... ./output/beta_bisabolene/beta_bisabolene
 Hartree-Fock type      HFTyp           .... RHF
 Total Charge           Charge          ....    0
 Multiplicity           Mult            ....    1
 Number of Electrons    NEL             ....   84
 Basis Dimension        Dim             ....  315
 Nuclear Repulsion      ENuc            ....    517.1023114462 Eh

Convergence Acceleration:
 AO-DIIS                CNVDIIS         .... on
   Start iteration      DIISMaxIt       ....    12
   Startup error        DIISStart       ....  0.200000
   # of expansion vecs  DIISMaxEq       ....     5
   Bias factor          DIISBfac        ....   1.050
   Max. coefficient     DIISMaxC        ....  10.000
 MO-DIIS                CNVKDIIS        .... off
 Trust-Rad. Augm. Hess. CNVTRAH         .... auto
   Auto Start mean grad. ratio tolernc. ....  1.125000
   Auto Start start iteration           ....    50
   Auto Start num. interpolation iter.  ....    10
   Max. Number of Micro iterations      ....    24
   Max. Number of Macro iterations      .... Maxiter - #DIIS iter
   Number of Davidson start vectors     ....     2
   Converg. threshold    (grad. norm)   ....   1.000e-05
   Grad. Scal. Fac. for Micro threshold ....   0.100
   Minimum threshold for Micro iter.    ....   1.000e-02
   NR start threshold (gradient norm)   ....   1.000e-04
   Initial trust radius                 ....   0.400
   Minimum AH scaling param. (alpha)    ....   1.000
   Maximum AH scaling param. (alpha)    .... 1000.000
   Quad. conv. algorithm                .... NR
   White noise on init. David. guess    .... on
   Maximum white noise                  ....   0.010
   Pseudo random numbers                .... off
   Inactive MOs                         .... canonical
   Orbital update algorithm             .... Taylor
   Preconditioner                       .... Diag
   Full preconditioner red. dimension   ....   250
 SOSCF                  CNVSOSCF        .... on
   Start iteration      SOSCFMaxIt      ....   150
   Startup grad/error   SOSCFStart      ....  0.003300
   Hessian update       SOSCFHessUp     .... L-BFGS
 Level Shifting         CNVShift        .... on
   Level shift para.    LevelShift      ....    0.2500
   Turn off err/grad.   ShiftErr        ....    0.0010
 Zerner damping         CNVZerner       .... off
 Static damping         CNVDamp         .... on
   Fraction old density DampFac         ....    0.7000
   Max. Damping (<1)    DampMax         ....    0.9800
   Min. Damping (>=0)   DampMin         ....    0.0000
   Turn off err/grad.   DampErr         ....    0.1000

SCF Procedure:
 Maximum # iterations   MaxIter         ....   125
 SCF integral mode      SCFMode         .... Direct
   Integral package                     .... SHARK and LIBINT hybrid scheme
 Reset frequency        DirectResetFreq ....    20
 Integral Threshold     Thresh          ....  2.500e-11 Eh
 Primitive CutOff       TCut            ....  2.500e-12 Eh

Convergence Tolerance:
 Convergence Check Mode ConvCheckMode   .... Total+1el-Energy
 Convergence forced     ConvForced      .... 0
 Energy Change          TolE            ....  1.000e-08 Eh
 1-El. energy change                    ....  1.000e-05 Eh
 Orbital Gradient       TolG            ....  1.000e-05
 Orbital Rotation angle TolX            ....  1.000e-05
 DIIS Error             TolErr          ....  5.000e-07

------------------------------
INITIAL GUESS: MODEL POTENTIAL
------------------------------
Loading Hartree-Fock densities                     ... done
Atomic calculation to generate a density for atom 0 (C  with ECP)
  Multiplicity assumed   :    1
  Atomic configuration   : 1s2 2s2 2p2 
  Number of open shells  : 1
  Command: /home/aspe232/Project/Software/ORCA/6_0_1/build/orca ./output/beta_bisabolene/beta_bisabolene_atom6.inp "" > ./output/beta_bisabolene/beta_bisabolene_atom6.out
Returned from the atomic calculation with res=0
Calculating cut-offs                               ... done
Initializing the effective Hamiltonian             ... done
Setting up the integral package (SHARK)            ... done
Starting the Coulomb interaction                   ... done (   0.1 sec)
Making the grid                                    ... done (   1.1 sec)
Mapping shells                                     ... done
Starting the XC term evaluation                    ... done (   0.1 sec)
  promolecular density results
     # of electrons  =    113.988790898
     EX              =    -55.338997996
     EC              =     -4.534665752
     EX+EC           =    -59.873663747
Transforming the Hamiltonian                       ... done (   0.0 sec)
Diagonalizing the Hamiltonian                      ... done (   0.0 sec)
Back transforming the eigenvectors                 ... done (   0.0 sec)
Now organizing SCF variables                       ... done
                      ------------------
                      INITIAL GUESS DONE (   2.0 sec)
                      ------------------
             **** ENERGY FILE WAS UPDATED (./output/beta_bisabolene/beta_bisabolene.en.tmp) ****
Finished Guess after   2.9 sec
Maximum memory used throughout the entire GUESS-calculation: 32.6 MB


           ************************************************************
           *        Program running with 40 parallel MPI-processes    *
           *              working on a common directory               *
           ************************************************************

-------------------------------------------------------------------------------------------
                                      ORCA LEAN-SCF
                              memory conserving SCF solver
-------------------------------------------------------------------------------------------

----------------------------------------D-I-I-S--------------------------------------------
Iteration    Energy (Eh)           Delta-E    RMSDP     MaxDP     DIISErr   Damp  Time(sec)
-------------------------------------------------------------------------------------------
               ***  Starting incremental Fock matrix formation  ***
    1    -99.1539230341898019     0.00e+00  3.44e-03  7.48e-02  1.86e-01  0.700   7.3
    2    -99.4241588953645987    -2.70e-01  2.52e-03  5.30e-02  1.13e-01  0.700   5.7
                               ***Turning on AO-DIIS***
    3    -99.5675631253543543    -1.43e-01  1.30e-03  2.80e-02  5.99e-02  0.700   5.7
    4    -99.6520669068258940    -8.45e-02  2.77e-03  5.77e-02  3.78e-02  0.000   5.4
    5    -99.8287818902199433    -1.77e-01  2.04e-04  4.87e-03  4.99e-03  0.000   5.8
                              *** Initializing SOSCF ***
---------------------------------------S-O-S-C-F--------------------------------------
Iteration    Energy (Eh)           Delta-E    RMSDP     MaxDP     MaxGrad    Time(sec)
--------------------------------------------------------------------------------------
    6    -99.8292371625270789    -4.55e-04  9.22e-05  1.58e-03  1.43e-03     5.2
               *** Restarting incremental Fock matrix formation ***
    7    -99.8292845757983969    -4.74e-05  5.53e-05  1.00e-03  2.96e-04     7.8
    8    -99.8292991991179406    -1.46e-05  3.34e-05  7.58e-04  2.17e-04     6.8
    9    -99.8293023127846482    -3.11e-06  9.87e-06  1.89e-04  5.60e-05     6.3
   10    -99.8293027074460042    -3.95e-07  2.67e-06  8.35e-05  1.64e-05     6.2
   11    -99.8293027237939441    -1.63e-08  9.85e-07  2.20e-05  6.09e-06     5.8
   12    -99.8293027371544213    -1.34e-08  2.28e-07  8.83e-06  2.08e-06     5.6
                  *** Gradient check signals convergence ***

               *****************************************************
               *                     SUCCESS                       *
               *           SCF CONVERGED AFTER  12 CYCLES          *
               *****************************************************

Recomputing exchange energy using gridx3       ... done (    8.057 sec)
Old exchange energy                            :    -15.870573400 Eh
New exchange energy                            :    -15.870546024 Eh
Exchange energy change after final integration :      0.000027376 Eh
Total energy after final integration           :    -99.829275361 Eh
             **** ENERGY FILE WAS UPDATED (./output/beta_bisabolene/beta_bisabolene.en.tmp) ****

----------------
TOTAL SCF ENERGY
----------------

Total Energy       :        -99.82927536141796 Eh           -2716.49269 eV

Components:
Nuclear Repulsion  :        517.10231144615113 Eh           14071.06925 eV
Electronic Energy  :       -616.93161418330556 Eh          -16787.56269 eV
One Electron Energy:      -1173.11149543205329 Eh          -31921.98667 eV
Two Electron Energy:        556.17988124874773 Eh           15134.42399 eV

Virial components:
Potential Energy   :       -177.69030338198957 Eh           -4835.19897 eV
Kinetic Energy     :         77.86102802057161 Eh            2118.70629 eV
Virial Ratio       :          2.28214689555656

DFT components:
N(Alpha)           :       42.000097157030 electrons
N(Beta)            :       42.000097157030 electrons
N(Total)           :       84.000194314059 electrons
E(X)               :      -16.056807944574 Eh       
E(C)               :       -3.117971296527 Eh       
E(XC)              :      -19.174779241102 Eh       

---------------
SCF CONVERGENCE
---------------

  Last Energy change         ...    1.3360e-08  Tolerance :   1.0000e-08
  Last MAX-Density change    ...    8.8309e-06  Tolerance :   1.0000e-07
  Last RMS-Density change    ...    2.2776e-07  Tolerance :   5.0000e-09
  Last DIIS Error            ...    1.4267e-03  Tolerance :   5.0000e-07
  Last Orbital Gradient      ...    2.0848e-06  Tolerance :   1.0000e-05
  Last Orbital Rotation      ...    6.8418e-06  Tolerance :   1.0000e-05


----------------
ORBITAL ENERGIES
----------------

  NO   OCC          E(Eh)            E(eV) 
   0   2.0000      -0.984812       -26.7981 
   1   2.0000      -0.957931       -26.0666 
   2   2.0000      -0.937986       -25.5239 
   3   2.0000      -0.896383       -24.3918 
   4   2.0000      -0.873565       -23.7709 
   5   2.0000      -0.860028       -23.4025 
   6   2.0000      -0.823601       -22.4113 
   7   2.0000      -0.808298       -21.9949 
   8   2.0000      -0.797532       -21.7019 
   9   2.0000      -0.743900       -20.2425 
  10   2.0000      -0.735697       -20.0193 
  11   2.0000      -0.708930       -19.2910 
  12   2.0000      -0.647246       -17.6124 
  13   2.0000      -0.629725       -17.1357 
  14   2.0000      -0.612628       -16.6704 
  15   2.0000      -0.594459       -16.1760 
  16   2.0000      -0.583307       -15.8726 
  17   2.0000      -0.568400       -15.4669 
  18   2.0000      -0.560760       -15.2591 
  19   2.0000      -0.550399       -14.9771 
  20   2.0000      -0.541029       -14.7221 
  21   2.0000      -0.537618       -14.6293 
  22   2.0000      -0.531933       -14.4746 
  23   2.0000      -0.512384       -13.9427 
  24   2.0000      -0.507937       -13.8217 
  25   2.0000      -0.504225       -13.7207 
  26   2.0000      -0.499223       -13.5846 
  27   2.0000      -0.495297       -13.4777 
  28   2.0000      -0.482410       -13.1271 
  29   2.0000      -0.476792       -12.9742 
  30   2.0000      -0.471562       -12.8319 
  31   2.0000      -0.464147       -12.6301 
  32   2.0000      -0.457228       -12.4418 
  33   2.0000      -0.452412       -12.3108 
  34   2.0000      -0.443909       -12.0794 
  35   2.0000      -0.429617       -11.6905 
  36   2.0000      -0.425805       -11.5867 
  37   2.0000      -0.407319       -11.0837 
  38   2.0000      -0.395203       -10.7540 
  39   2.0000      -0.339041        -9.2258 
  40   2.0000      -0.322321        -8.7708 
  41   2.0000      -0.318371        -8.6633 
  42   0.0000       0.076274         2.0755 
  43   0.0000       0.081696         2.2231 
  44   0.0000       0.086964         2.3664 
  45   0.0000       0.089809         2.4438 
  46   0.0000       0.093347         2.5401 
  47   0.0000       0.101518         2.7624 
  48   0.0000       0.104034         2.8309 
  49   0.0000       0.107905         2.9362 
  50   0.0000       0.116456         3.1689 
  51   0.0000       0.122900         3.3443 
  52   0.0000       0.124926         3.3994 
*Only the first 10 virtual orbitals were printed.

                    ********************************
                    * MULLIKEN POPULATION ANALYSIS *
                    ********************************

-----------------------
MULLIKEN ATOMIC CHARGES
-----------------------
   0 C :   -0.089069
   1 C :   -0.066104
   2 C :   -0.022291
   3 C :   -0.063054
   4 C :   -0.113226
   5 C :   -0.038061
   6 C :   -0.061184
   7 C :   -0.075970
   8 C :   -0.014286
   9 C :   -0.065809
  10 C :   -0.081464
  11 C :   -0.005546
  12 C :   -0.091762
  13 C :   -0.097725
  14 C :   -0.095011
  15 H :    0.049638
  16 H :    0.032590
  17 H :    0.053258
  18 H :    0.014679
  19 H :    0.048285
  20 H :    0.053419
  21 H :    0.038136
  22 H :    0.046328
  23 H :    0.036989
  24 H :    0.047472
  25 H :    0.039381
  26 H :    0.022549
  27 H :    0.019568
  28 H :    0.051748
  29 H :    0.040077
  30 H :    0.052401
  31 H :    0.046757
  32 H :    0.005335
  33 H :    0.032968
  34 H :    0.054647
  35 H :    0.055296
  36 H :    0.034187
  37 H :    0.052505
  38 H :    0.052349
Sum of atomic charges:   -0.0000000

--------------------------------
MULLIKEN REDUCED ORBITAL CHARGES
--------------------------------
  0 C s       :     0.958050  s :     0.958050
      pz      :     1.032632  p :     3.057191
      px      :     0.997670
      py      :     1.026889
      dz2     :     0.016542  d :     0.073828
      dxz     :     0.016497
      dyz     :     0.009303
      dx2y2   :     0.021943
      dxy     :     0.009543

  1 C s       :     1.083334  s :     1.083334
      pz      :     0.979563  p :     2.864066
      px      :     0.927808
      py      :     0.956695
      dz2     :     0.028361  d :     0.118704
      dxz     :     0.029142
      dyz     :     0.024341
      dx2y2   :     0.019439
      dxy     :     0.017420

  2 C s       :     1.026810  s :     1.026810
      pz      :     0.975217  p :     2.904522
      px      :     0.951850
      py      :     0.977455
      dz2     :     0.019019  d :     0.090960
      dxz     :     0.024855
      dyz     :     0.021430
      dx2y2   :     0.011468
      dxy     :     0.014188

  3 C s       :     0.987308  s :     0.987308
      pz      :     0.996327  p :     2.976453
      px      :     0.931221
      py      :     1.048906
      dz2     :     0.017241  d :     0.099293
      dxz     :     0.021204
      dyz     :     0.019540
      dx2y2   :     0.022538
      dxy     :     0.018771

  4 C s       :     1.037657  s :     1.037657
      pz      :     0.974400  p :     2.958079
      px      :     0.968926
      py      :     1.014753
      dz2     :     0.026920  d :     0.117490
      dxz     :     0.025045
      dyz     :     0.020255
      dx2y2   :     0.017072
      dxy     :     0.028199

  5 C s       :     1.009885  s :     1.009885
      pz      :     0.947211  p :     2.930701
      px      :     0.938877
      py      :     1.044614
      dz2     :     0.018609  d :     0.097475
      dxz     :     0.020948
      dyz     :     0.022458
      dx2y2   :     0.016027
      dxy     :     0.019433

  6 C s       :     0.993766  s :     0.993766
      pz      :     1.036387  p :     2.967261
      px      :     0.926585
      py      :     1.004288
      dz2     :     0.023185  d :     0.100157
      dxz     :     0.018108
      dyz     :     0.013247
      dx2y2   :     0.026349
      dxy     :     0.019268

  7 C s       :     1.080697  s :     1.080697
      pz      :     0.956174  p :     2.876404
      px      :     0.913520
      py      :     1.006710
      dz2     :     0.008488  d :     0.118868
      dxz     :     0.015849
      dyz     :     0.024650
      dx2y2   :     0.034262
      dxy     :     0.035619

  8 C s       :     0.970200  s :     0.970200
      pz      :     1.019332  p :     2.980633
      px      :     0.982993
      py      :     0.978308
      dz2     :     0.004320  d :     0.063454
      dxz     :     0.003963
      dyz     :     0.012090
      dx2y2   :     0.018693
      dxy     :     0.024388

  9 C s       :     0.995214  s :     0.995214
      pz      :     0.974955  p :     2.969956
      px      :     0.942984
      py      :     1.052017
      dz2     :     0.014212  d :     0.100640
      dxz     :     0.023027
      dyz     :     0.025359
      dx2y2   :     0.024724
      dxy     :     0.013318

 10 C s       :     1.011219  s :     1.011219
      pz      :     0.984915  p :     2.968805
      px      :     0.940539
      py      :     1.043352
      dz2     :     0.013848  d :     0.101440
      dxz     :     0.022056
      dyz     :     0.024172
      dx2y2   :     0.024561
      dxy     :     0.016802

 11 C s       :     1.025453  s :     1.025453
      pz      :     0.969955  p :     2.890212
      px      :     0.912236
      py      :     1.008021
      dz2     :     0.026160  d :     0.089881
      dxz     :     0.023052
      dyz     :     0.007837
      dx2y2   :     0.013969
      dxy     :     0.018863

 12 C s       :     1.108929  s :     1.108929
      pz      :     0.956961  p :     2.864610
      px      :     0.948038
      py      :     0.959612
      dz2     :     0.030678  d :     0.118222
      dxz     :     0.033267
      dyz     :     0.019781
      dx2y2   :     0.014454
      dxy     :     0.020042

 13 C s       :     0.959466  s :     0.959466
      pz      :     1.040282  p :     3.064309
      px      :     0.974230
      py      :     1.049797
      dz2     :     0.006429  d :     0.073949
      dxz     :     0.021225
      dyz     :     0.014539
      dx2y2   :     0.019015
      dxy     :     0.012742

 14 C s       :     0.957424  s :     0.957424
      pz      :     0.972922  p :     3.064328
      px      :     1.045869
      py      :     1.045537
      dz2     :     0.017568  d :     0.073258
      dxz     :     0.019718
      dyz     :     0.014408
      dx2y2   :     0.009777
      dxy     :     0.011786

 15 H s       :     0.906239  s :     0.906239
      pz      :     0.010227  p :     0.044122
      px      :     0.010328
      py      :     0.023568

 16 H s       :     0.923246  s :     0.923246
      pz      :     0.021704  p :     0.044164
      px      :     0.010506
      py      :     0.011954

 17 H s       :     0.902496  s :     0.902496
      pz      :     0.013929  p :     0.044246
      px      :     0.019462
      py      :     0.010855

 18 H s       :     0.936771  s :     0.936771
      pz      :     0.014188  p :     0.048550
      px      :     0.015287
      py      :     0.019075

 19 H s       :     0.908746  s :     0.908746
      pz      :     0.010612  p :     0.042968
      px      :     0.011324
      py      :     0.021032

 20 H s       :     0.903817  s :     0.903817
      pz      :     0.018255  p :     0.042764
      px      :     0.010547
      py      :     0.013961

 21 H s       :     0.921466  s :     0.921466
      pz      :     0.010036  p :     0.040397
      px      :     0.011778
      py      :     0.018584

 22 H s       :     0.911618  s :     0.911618
      pz      :     0.012401  p :     0.042054
      px      :     0.009306
      py      :     0.020348

 23 H s       :     0.920899  s :     0.920899
      pz      :     0.011697  p :     0.042113
      px      :     0.014185
      py      :     0.016231

 24 H s       :     0.909716  s :     0.909716
      pz      :     0.011359  p :     0.042812
      px      :     0.010502
      py      :     0.020951

 25 H s       :     0.917504  s :     0.917504
      pz      :     0.022589  p :     0.043115
      px      :     0.011051
      py      :     0.009476

 26 H s       :     0.925779  s :     0.925779
      pz      :     0.015391  p :     0.051673
      px      :     0.025807
      py      :     0.010475

 27 H s       :     0.929834  s :     0.929834
      pz      :     0.014746  p :     0.050599
      px      :     0.016811
      py      :     0.019041

 28 H s       :     0.906086  s :     0.906086
      pz      :     0.015755  p :     0.042166
      px      :     0.010486
      py      :     0.015925

 29 H s       :     0.917412  s :     0.917412
      pz      :     0.012335  p :     0.042511
      px      :     0.009341
      py      :     0.020836

 30 H s       :     0.905395  s :     0.905395
      pz      :     0.011699  p :     0.042205
      px      :     0.009552
      py      :     0.020953

 31 H s       :     0.911255  s :     0.911255
      pz      :     0.015060  p :     0.041988
      px      :     0.010873
      py      :     0.016055

 32 H s       :     0.945145  s :     0.945145
      pz      :     0.024212  p :     0.049520
      px      :     0.010263
      py      :     0.015046

 33 H s       :     0.922916  s :     0.922916
      pz      :     0.017188  p :     0.044116
      px      :     0.016427
      py      :     0.010501

 34 H s       :     0.901341  s :     0.901341
      pz      :     0.012883  p :     0.044013
      px      :     0.010092
      py      :     0.021038

 35 H s       :     0.900693  s :     0.900693
      pz      :     0.016178  p :     0.044011
      px      :     0.011196
      py      :     0.016637

 36 H s       :     0.921558  s :     0.921558
      pz      :     0.014177  p :     0.044255
      px      :     0.019649
      py      :     0.010430

 37 H s       :     0.902988  s :     0.902988
      pz      :     0.010521  p :     0.044507
      px      :     0.012441
      py      :     0.021545

 38 H s       :     0.903145  s :     0.903145
      pz      :     0.012156  p :     0.044506
      px      :     0.015762
      py      :     0.016589



                     *******************************
                     * LOEWDIN POPULATION ANALYSIS *
                     *******************************

----------------------
LOEWDIN ATOMIC CHARGES
----------------------
   0 C :   -0.119590
   1 C :   -0.049542
   2 C :   -0.053801
   3 C :   -0.081978
   4 C :   -0.057514
   5 C :   -0.070490
   6 C :   -0.085177
   7 C :   -0.029221
   8 C :   -0.079222
   9 C :   -0.086497
  10 C :   -0.088179
  11 C :   -0.058249
  12 C :   -0.055073
  13 C :   -0.121439
  14 C :   -0.116410
  15 H :    0.053529
  16 H :    0.048159
  17 H :    0.054829
  18 H :    0.033562
  19 H :    0.049609
  20 H :    0.054825
  21 H :    0.046683
  22 H :    0.049913
  23 H :    0.045211
  24 H :    0.050853
  25 H :    0.051741
  26 H :    0.030456
  27 H :    0.030282
  28 H :    0.054953
  29 H :    0.048758
  30 H :    0.051694
  31 H :    0.050050
  32 H :    0.035026
  33 H :    0.047180
  34 H :    0.054032
  35 H :    0.054225
  36 H :    0.049485
  37 H :    0.053875
  38 H :    0.053449

-------------------------------
LOEWDIN REDUCED ORBITAL CHARGES
-------------------------------
  0 C s       :     0.777584  s :     0.777584
      pz      :     1.044461  p :     3.103816
      px      :     1.009187
      py      :     1.050168
      dz2     :     0.054783  d :     0.238190
      dxz     :     0.053849
      dyz     :     0.027750
      dx2y2   :     0.071272
      dxy     :     0.030535

  1 C s       :     0.794473  s :     0.794473
      pz      :     1.020902  p :     2.877008
      px      :     0.934381
      py      :     0.921725
      dz2     :     0.089798  d :     0.378062
      dxz     :     0.094361
      dyz     :     0.077315
      dx2y2   :     0.063480
      dxy     :     0.053108

  2 C s       :     0.803019  s :     0.803019
      pz      :     1.022055  p :     2.951327
      px      :     0.958978
[...]
 81:   1508.33   0.001999   10.10  0.000413  (-0.005190  0.017571 -0.008821)
 82:   1514.52   0.001665    8.41  0.000343  (-0.000557 -0.010602 -0.015178)
 83:   1519.86   0.000291    1.47  0.000060  ( 0.000196  0.007604  0.001352)
 84:   1521.24   0.003561   17.99  0.000730  ( 0.001048 -0.008508 -0.025631)
 85:   1521.62   0.002565   12.96  0.000526  ( 0.008103 -0.009468 -0.019255)
 86:   1526.02   0.000588    2.97  0.000120  ( 0.000060  0.010473  0.003239)
 87:   1527.35   0.002962   14.97  0.000605  ( 0.001227  0.022362 -0.010182)
 88:   1538.24   0.001295    6.54  0.000263  ( 0.006590  0.008935  0.011808)
 89:   1539.61   0.001037    5.24  0.000210  (-0.009769  0.001328 -0.010627)
 90:   1771.44   0.005500   27.80  0.000969  ( 0.012137  0.027258 -0.008870)
 91:   1793.49   0.001074    5.43  0.000187  ( 0.010487  0.006555  0.005819)
 92:   1806.94   0.000604    3.05  0.000104  (-0.005386 -0.008179  0.002908)
 93:   3077.00   0.008431   42.60  0.000855  ( 0.003576 -0.026737  0.011287)
 94:   3081.34   0.002528   12.78  0.000256  ( 0.005271  0.002596  0.014884)
 95:   3091.89   0.008435   42.63  0.000851  ( 0.028476  0.004087  0.004869)
 96:   3092.66   0.001327    6.71  0.000134  ( 0.002444 -0.003541 -0.010742)
 97:   3093.52   0.006707   33.90  0.000677  (-0.024246 -0.001097 -0.009356)
 98:   3098.74   0.009823   49.64  0.000989  (-0.016602 -0.025765  0.007055)
 99:   3105.27   0.009132   46.15  0.000918  (-0.020544 -0.019578 -0.010603)
100:   3112.13   0.003980   20.11  0.000399  ( 0.006598  0.008507  0.016829)
101:   3123.14   0.008892   44.94  0.000889  ( 0.017925 -0.001194 -0.023786)
102:   3149.69   0.004853   24.53  0.000481  ( 0.010544  0.007594  0.017664)
103:   3151.27   0.001346    6.80  0.000133  ( 0.004817 -0.009533  0.004385)
104:   3161.20   0.003067   15.50  0.000303  ( 0.012282 -0.000580  0.012310)
105:   3167.77   0.002129   10.76  0.000210  (-0.003890  0.013928 -0.000807)
106:   3167.87   0.000445    2.25  0.000044  (-0.001595  0.002043  0.006091)
107:   3169.34   0.003989   20.16  0.000393  ( 0.005717 -0.008397 -0.017017)
108:   3173.89   0.003016   15.24  0.000297  (-0.001400  0.014214 -0.009622)
109:   3184.18   0.002565   12.96  0.000251  (-0.008775 -0.012155  0.005164)
110:   3198.70   0.002785   14.08  0.000272  (-0.010917  0.009560 -0.007821)
111:   3202.24   0.002477   12.52  0.000241  ( 0.003149 -0.001892 -0.015097)
112:   3207.10   0.004611   23.30  0.000449  (-0.005169  0.017277 -0.011109)
113:   3209.15   0.001894    9.57  0.000184  (-0.003651 -0.011757  0.005709)
114:   3223.76   0.003651   18.45  0.000353  ( 0.017614 -0.001069  0.006482)
115:   3236.73   0.003093   15.63  0.000298  ( 0.009959 -0.003372 -0.013700)
116:   3302.51   0.001758    8.89  0.000166  (-0.010323  0.003905 -0.006658)

* The epsilon (eps) is given for a Dirac delta lineshape.
** The dipole moment derivative (T) already includes vibrational overlap.

The first frequency considered to be a vibration is 6
The total number of vibrations considered is 111


--------------------------
THERMOCHEMISTRY AT 298.15K
--------------------------

Temperature         ...   298.15 K
Pressure            ...     1.00 atm
Total Mass          ...   204.36 AMU
Quasi RRHO          ...     True
Cut-Off Frequency   ...     1.00 cm^-1

Throughout the following assumptions are being made:
  (1) The electronic state is orbitally nondegenerate
  (2) There are no thermally accessible electronically excited states
  (3) Hindered rotations indicated by low frequency modes are not
      treated as such but are treated as vibrations and this may
      cause some error
  (4) All equations used are the standard statistical mechanics
      equations for an ideal gas
  (5) All vibrations are strictly harmonic

freq.      13.11  E(vib)   ...       0.57 
freq.      19.59  E(vib)   ...       0.56 
freq.      29.43  E(vib)   ...       0.55 
freq.      39.89  E(vib)   ...       0.54 
freq.      91.06  E(vib)   ...       0.47 
freq.      96.50  E(vib)   ...       0.47 
freq.     130.87  E(vib)   ...       0.42 
freq.     147.93  E(vib)   ...       0.41 
freq.     170.12  E(vib)   ...       0.38 
freq.     190.22  E(vib)   ...       0.36 
freq.     199.33  E(vib)   ...       0.35 
freq.     225.37  E(vib)   ...       0.33 
freq.     291.99  E(vib)   ...       0.27 
freq.     307.06  E(vib)   ...       0.26 
freq.     315.91  E(vib)   ...       0.25 
freq.     336.97  E(vib)   ...       0.24 
freq.     354.52  E(vib)   ...       0.22 
freq.     382.58  E(vib)   ...       0.21 
freq.     409.83  E(vib)   ...       0.19 
freq.     442.07  E(vib)   ...       0.17 
freq.     466.74  E(vib)   ...       0.16 
freq.     492.93  E(vib)   ...       0.14 
freq.     535.69  E(vib)   ...       0.12 
freq.     555.23  E(vib)   ...       0.12 
freq.     572.82  E(vib)   ...       0.11 
freq.     653.99  E(vib)   ...       0.08 
freq.     726.14  E(vib)   ...       0.06 
freq.     751.44  E(vib)   ...       0.06 
freq.     764.41  E(vib)   ...       0.06 
freq.     779.92  E(vib)   ...       0.05 
freq.     810.96  E(vib)   ...       0.05 
freq.     841.26  E(vib)   ...       0.04 
freq.     848.64  E(vib)   ...       0.04 
freq.     876.66  E(vib)   ...       0.04 
freq.     916.50  E(vib)   ...       0.03 
freq.     938.47  E(vib)   ...       0.03 
freq.     948.08  E(vib)   ...       0.03 
freq.     970.55  E(vib)   ...       0.03 
freq.     985.67  E(vib)   ...       0.02 
freq.    1004.78  E(vib)   ...       0.02 
freq.    1015.57  E(vib)   ...       0.02 
freq.    1030.95  E(vib)   ...       0.02 
freq.    1033.67  E(vib)   ...       0.02 
freq.    1051.57  E(vib)   ...       0.02 
freq.    1054.68  E(vib)   ...       0.02 
freq.    1075.65  E(vib)   ...       0.02 
freq.    1082.42  E(vib)   ...       0.02 
freq.    1104.96  E(vib)   ...       0.02 
freq.    1117.54  E(vib)   ...       0.01 
freq.    1128.63  E(vib)   ...       0.01 
freq.    1151.61  E(vib)   ...       0.01 
freq.    1162.34  E(vib)   ...       0.01 
freq.    1191.27  E(vib)   ...       0.01 
freq.    1211.57  E(vib)   ...       0.01 
freq.    1244.03  E(vib)   ...       0.01 
freq.    1260.50  E(vib)   ...       0.01 
freq.    1272.68  E(vib)   ...       0.01 
freq.    1277.18  E(vib)   ...       0.01 
freq.    1293.59  E(vib)   ...       0.01 
freq.    1315.55  E(vib)   ...       0.01 
freq.    1338.37  E(vib)   ...       0.01 
freq.    1344.08  E(vib)   ...       0.01 
freq.    1351.75  E(vib)   ...       0.01 
freq.    1383.37  E(vib)   ...       0.00 
freq.    1396.52  E(vib)   ...       0.00 
freq.    1412.55  E(vib)   ...       0.00 
freq.    1422.36  E(vib)   ...       0.00 
freq.    1426.94  E(vib)   ...       0.00 
freq.    1450.35  E(vib)   ...       0.00 
freq.    1450.93  E(vib)   ...       0.00 
freq.    1452.93  E(vib)   ...       0.00 
freq.    1458.87  E(vib)   ...       0.00 
freq.    1473.53  E(vib)   ...       0.00 
freq.    1501.93  E(vib)   ...       0.00 
freq.    1507.99  E(vib)   ...       0.00 
freq.    1508.33  E(vib)   ...       0.00 
freq.    1514.52  E(vib)   ...       0.00 
freq.    1519.86  E(vib)   ...       0.00 
freq.    1521.24  E(vib)   ...       0.00 
freq.    1521.62  E(vib)   ...       0.00 
freq.    1526.02  E(vib)   ...       0.00 
freq.    1527.35  E(vib)   ...       0.00 
freq.    1538.24  E(vib)   ...       0.00 
freq.    1539.61  E(vib)   ...       0.00 
freq.    1771.44  E(vib)   ...       0.00 
freq.    1793.49  E(vib)   ...       0.00 
freq.    1806.94  E(vib)   ...       0.00 
freq.    3077.00  E(vib)   ...       0.00 
freq.    3081.34  E(vib)   ...       0.00 
freq.    3091.89  E(vib)   ...       0.00 
freq.    3092.66  E(vib)   ...       0.00 
freq.    3093.52  E(vib)   ...       0.00 
freq.    3098.74  E(vib)   ...       0.00 
freq.    3105.27  E(vib)   ...       0.00 
freq.    3112.13  E(vib)   ...       0.00 
freq.    3123.14  E(vib)   ...       0.00 
freq.    3149.69  E(vib)   ...       0.00 
freq.    3151.27  E(vib)   ...       0.00 
freq.    3161.20  E(vib)   ...       0.00 
freq.    3167.77  E(vib)   ...       0.00 
freq.    3167.87  E(vib)   ...       0.00 
freq.    3169.34  E(vib)   ...       0.00 
freq.    3173.89  E(vib)   ...       0.00 
freq.    3184.18  E(vib)   ...       0.00 
freq.    3198.70  E(vib)   ...       0.00 
freq.    3202.24  E(vib)   ...       0.00 
freq.    3207.10  E(vib)   ...       0.00 
freq.    3209.15  E(vib)   ...       0.00 
freq.    3223.76  E(vib)   ...       0.00 
freq.    3236.73  E(vib)   ...       0.00 
freq.    3302.51  E(vib)   ...       0.00 

------------
INNER ENERGY
------------

The inner energy is: U= E(el) + E(ZPE) + E(vib) + E(rot) + E(trans)
    E(el)   - is the total energy from the electronic structure calculation
              = E(kin-el) + E(nuc-el) + E(el-el) + E(nuc-nuc)
    E(ZPE)  - the the zero temperature vibrational energy from the frequency calculation
    E(vib)  - the the finite temperature correction to E(ZPE) due to population
              of excited vibrational states
    E(rot)  - is the rotational thermal energy
    E(trans)- is the translational thermal energy

Summary of contributions to the inner energy U:
Electronic energy                ...    -99.90055046 Eh
Zero point energy                ...      0.36212250 Eh     227.23 kcal/mol
Thermal vibrational correction   ...      0.01415556 Eh       8.88 kcal/mol
Thermal rotational correction    ...      0.00141627 Eh       0.89 kcal/mol
Thermal translational correction ...      0.00141627 Eh       0.89 kcal/mol
-----------------------------------------------------------------------
Total thermal energy                    -99.52143985 Eh


Summary of corrections to the electronic energy:
(perhaps to be used in another calculation)
Total thermal correction                  0.01698810 Eh      10.66 kcal/mol
Non-thermal (ZPE) correction              0.36212250 Eh     227.23 kcal/mol
-----------------------------------------------------------------------
Total correction                          0.37911061 Eh     237.89 kcal/mol


--------
ENTHALPY
--------

The enthalpy is H = U + kB*T
                kB is Boltzmann's constant
Total thermal energy              ...    -99.52143985 Eh 
Thermal Enthalpy correction       ...      0.00094421 Eh       0.59 kcal/mol
-----------------------------------------------------------------------
Total Enthalpy                    ...    -99.52049564 Eh


Note: Only C1 symmetry has been detected, increase convergence thresholds 
      if your molecule has a higher symmetry. Symmetry factor of 1.0 is   
      used for the rotational entropy correction. 
 

Note: Rotational entropy computed according to Herzberg 
Infrared and Raman Spectra, Chapter V,1, Van Nostrand Reinhold, 1945 
Point Group:  C1, Symmetry Number:   1  
Rotational constants in cm-1:     0.050741     0.007383     0.007070 

Vibrational entropy computed according to the QRRHO of S. Grimme
Chem.Eur.J. 2012 18 9955 using a reference frequency of 100.0 cm-1


-------
ENTROPY
-------

The entropy contributions are T*S = T*(S(el)+S(vib)+S(rot)+S(trans))
     S(el)   - electronic entropy
     S(vib)  - vibrational entropy
     S(rot)  - rotational entropy
     S(trans)- translational entropy
The entropies will be listed as multiplied by the temperature to get
units of energy

Electronic entropy                ...      0.00000000 Eh      0.00 kcal/mol
Vibrational entropy               ...      0.02584488 Eh     16.22 kcal/mol
Rotational entropy                ...      0.01557315 Eh      9.77 kcal/mol
Translational entropy             ...      0.01988345 Eh     12.48 kcal/mol
-----------------------------------------------------------------------
Final entropy term                ...      0.06130148 Eh     38.47 kcal/mol

In case the symmetry of your molecule has not been determined correctly
or in case you have a reason to use a different symmetry number we print 
out the resulting rotational entropy values for sn=1,12:

 non-linear molecules -----------------------------------
|  sn= 1 | S(rot)=       0.01557315 Eh      9.77 kcal/mol|
|  sn= 2 | S(rot)=       0.01491869 Eh      9.36 kcal/mol|
|  sn= 3 | S(rot)=       0.01453586 Eh      9.12 kcal/mol|
|  sn= 4 | S(rot)=       0.01426423 Eh      8.95 kcal/mol|
|  sn= 5 | S(rot)=       0.01405355 Eh      8.82 kcal/mol|
|  sn= 6 | S(rot)=       0.01388140 Eh      8.71 kcal/mol|
|  sn= 7 | S(rot)=       0.01373586 Eh      8.62 kcal/mol|
|  sn= 8 | S(rot)=       0.01360978 Eh      8.54 kcal/mol|
|  sn= 9 | S(rot)=       0.01349857 Eh      8.47 kcal/mol|
|  sn=10 | S(rot)=       0.01339909 Eh      8.41 kcal/mol|
|  sn=11 | S(rot)=       0.01330910 Eh      8.35 kcal/mol|
|  sn=12 | S(rot)=       0.01322694 Eh      8.30 kcal/mol|
 linear molecules ---------------------------------------
|  Dinfh | S(rot)=       0.01000125 Eh      6.28 kcal/mol|
|  Cinfv | S(rot)=       0.01065571 Eh      6.69 kcal/mol|
 --------------------------------------------------------


-------------------
GIBBS FREE ENERGY
-------------------

The Gibbs free energy is G = H - T*S

Total enthalpy                    ...    -99.52049564 Eh 
Total entropy correction          ...     -0.06130148 Eh    -38.47 kcal/mol
-----------------------------------------------------------------------
Final Gibbs free energy         ...    -99.58179712 Eh

For completeness - the Gibbs free energy minus the electronic energy
G-E(el)                           ...      0.31875334 Eh    200.02 kcal/mol


Maximum memory used throughout the entire PROP-calculation: 236.0 MB

--------------------------------
SUGGESTED CITATIONS FOR THIS RUN
--------------------------------

Below you find a list of papers that are relevant to this ORCA run
We neither can nor want to force you to cite these papers, but we appreciate if you do
You receive ORCA, which is the product of decades of hard work by many enthusiastic individuals, for free
The only thing we kindly ask in return is that you cite our papers,
We deeply appreciate it, if you show your appreciation for ORCA by not just citing the generic ORCA reference.

Please note that relegating all ORCA citations to the supporting information does *not* help us.
SI sections are not indexed - citations you put there will not count into any citation statistics
But we need these citations in order to attract the funding resources that allow us to do what we are doing

Therefore, if you are a happy ORCA user, please consider citing a few of the papers listed below in the main body of your paper

In addition to the list printed below, the program has created the file ./output/beta_bisabolene/beta_bisabolene.bibtex that contains the list in bibtex format
You can import this file easily into all common literature databanks and citation aid programs


List of essential papers. We consider these as the minimum necessary citations

  1. Neese,F.
     Software update: the ORCA program system, version 5.0
     WIRES Comput. Molec. Sci., 2022 12(1)e1606
     doi.org/10.1002/wcms.1606
  2. Mueller,M.; Hansen,A.; Grimme,S.
     wB97X-3c: A composite range-separated hybrid DFT method with a molecule-optimized polarized valence double-zeta basis set
     J. Chem. Phys., 2023 158 014103
     doi.org/10.1063/5.0133026

List of papers to cite with high priority. The work reported in these papers was absolutely
necessary for this run to complete.
Our perspective: the developers of density functionals and basis sets usually get cited in chemistry papers
Good! But without the algorithms to do something with them, the functionals or basis sets would not do anything.
Hence, in our opinion, the algorithm design and method developments papers are equally worthy of getting cited

  1. Neese,F.
     An improvement of the resolution of the identity approximation for the formation of the Coulomb matrix
     J. Comp. Chem., 2003 24(14)1740-1747
     doi.org/10.1002/jcc.10318
  2. Neese,F.; Wennmohs,F.; Hansen,A.; Becker,U.
     Efficient, approximate and parallel Hartree-Fock and hybrid DFT calculations. A 'chain-of-spheres' algorithm for the Hartree-Fock exchange
     Chem. Phys., 2009 356(1-3)98-109
     doi.org/10.1016/j.chemphys.2008.10.036
  3. Bykov,D.; Petrenko,T.; Izsak,R.; Kossmann,S.; Becker,U.; Valeev,E.; Neese,F.
     Efficient implementation of the analytic second derivatives of Hartree-Fock and hybrid DFT energies: a detailed analysis of different approximations
     Molec. Phys., 2015 113 1961-1977
     doi.org/10.1080/00268976.2015.1025114
  4. Helmich-Paris,B.; de Souza,B.; Neese,F.; Izsák,R.
     An improved chain of spheres for exchange algorithm
     J. Chem. Phys., 2021 155 104109
     doi.org/doi: 10.1063/5.0058766.
  5. Neese,F.
     The SHARK Integral Generation and Digestion System
     J. Comp. Chem., 2022  1-16
     doi.org/10.1002/jcc.26942
  6. Caldeweyher,E.; Bannwarth,C.; Grimme,S.
     Extension of the D3 dispersion coefficient model
     J. Chem. Phys., 2017 147 034112
     doi.org/10.1063/1.4993215
  7. Caldeweyher,E.; Ehlert,S.; Hansen,A.; Neugebauer,H.; Spicher,S.; Bannwarth,C.; Grimme,S.
     A generally applicable atomic-charge dependent London dispersion correction
     J. Chem. Phys., 2019 150 154122
     doi.org/10.1063/1.5090222
  8. Caldeweyher,E.; Mewes,J.; Ehlert,S.; Grimme,S.
     Extension and evaluation of the D4 London-dispersion model for periodic systems
     Phys. Chem. Chem. Phys., 2020 22(16)8499-8512
     doi.org/10.1039/D0CP00502A
  9. Wittmann,L.; Gordiy,I.; Friede,M.; Helmich-Paris,B.; Grimme,S.; Hansen,A.; Bursch,M.
     Extension of the D3 and D4 London Dispersion Corrections to the full Actinides Series
     Phys. Chem. Chem. Phys., 2024 26(32)21379-21394
     doi.org/https://doi.org/10.1039/D4CP01514B 

List of suggested additional citations. These are papers that are important in the 'surrounding' of 
of this run, or papers that preceded the highly important papers. If you like your results we are grateful for a citation.

  1. Izsak,R.; Neese,F.
     An overlap fitted chain of spheres exchange method
     J. Chem. Phys., 2011 135 144105
     doi.org/10.1063/1.3646921
  2. Izsak,R.; Hansen,A.; Neese,F.
     The resolution of identity and chain of spheres approximations for the LPNO-CCSD singles Fock term
     Molec. Phys., 2012 110 2413-2417
     doi.org/10.1080/00268976.2012.687466
  3. Neese,F.
     The ORCA program system
     WIRES Comput. Molec. Sci., 2012 2(1)73-78
     doi.org/10.1002/wcms.81
  4. Izsak,R.; Neese,F.; Klopper,W.
     Robust fitting techniques in the chain of spheres approximation to the Fock exchange: The role of the complementary space
     J. Chem. Phys., 2013 139 
     doi.org/10.1063/1.4819264
  5. Neese,F.
     Software update: the ORCA program system, version 4.0
     WIRES Comput. Molec. Sci., 2018 8(1)1-6
     doi.org/10.1002/wcms.1327
  6. Neese,F.; Wennmohs,F.; Becker,U.; Riplinger,C.
     The ORCA quantum chemistry program package
     J. Chem. Phys., 2020 152 Art. No. L224108
     doi.org/10.1063/5.0004608

List of optional additional citations

  1. Neese,F.
     Approximate second-order SCF convergence for spin unrestricted wavefunctions
     Chem. Phys. Lett., 2000 325(1-3)93-98
     doi.org/10.1016/s0009-2614(00)00662-x

Timings for individual modules:

Sum of individual times          ...     4554.187 sec (=  75.903 min)
Startup calculation              ...      238.060 sec (=   3.968 min)   5.2 %
SCF iterations                   ...     3245.549 sec (=  54.092 min)  71.3 %
Property integrals               ...      159.046 sec (=   2.651 min)   3.5 %
SCF Response                     ...       79.345 sec (=   1.322 min)   1.7 %
Property calculations            ...      166.183 sec (=   2.770 min)   3.6 %
SCF Gradient evaluation          ...      664.603 sec (=  11.077 min)  14.6 %
Geometry relaxation              ...        1.401 sec (=   0.023 min)   0.0 %
                             ****ORCA TERMINATED NORMALLY****
TOTAL RUN TIME: 0 days 1 hours 16 minutes 18 seconds 210 msec
