
                                 *****************
                                 * O   R   C   A *
                                 *****************

                                            #,                                       
                                            ###                                      
                                            ####                                     
                                            #####                                    
                                            ######                                   
                                           ########,                                 
                                     ,,################,,,,,                         
                               ,,#################################,,                 
                          ,,##########################################,,             
                       ,#########################################, ''#####,          
                    ,#############################################,,   '####,        
                  ,##################################################,,,,####,       
                ,###########''''           ''''###############################       
              ,#####''   ,,,,##########,,,,          '''####'''          '####       
            ,##' ,,,,###########################,,,                        '##       
           ' ,,###''''                  '''############,,,                           
         ,,##''                                '''############,,,,        ,,,,,,###''
      ,#''                                            '''#######################'''  
     '                                                          ''''####''''         
             ,#######,   #######,   ,#######,      ##                                
            ,#'     '#,  ##    ##  ,#'     '#,    #''#        ,####,   ,####,        
            ##       ##  ##   ,#'  ##            #'  '#       #'       #'  '#        
            ##       ##  #######   ##           ,######,      #####,   #    #        
            '#,     ,#'  ##    ##  '#,     ,#' ,#      #,     #,   #   #,  ,#        
             '#######'   ##     ##  '#######'  #'      '#     '####' # '####'        



                #########################################################
                #                        -***-                          #
                #          Department of theory and spectroscopy        #
                #                                                       #
                #                      Frank Neese                      #
                #                                                       #
                #     Directorship, Architecture, Infrastructure        #
                #                    SHARK, DRIVERS                     #
                #        Core code/Algorithms in most modules           #
                #                                                       #
                #        Max Planck Institute fuer Kohlenforschung      #
                #                Kaiser Wilhelm Platz 1                 #
                #                 D-45470 Muelheim/Ruhr                 #
                #                      Germany                          #
                #                                                       #
                #                  All rights reserved                  #
                #                        -***-                          #
                #########################################################


                         Program Version 6.0.1  -  RELEASE   -


 With contributions from (in alphabetic order):
[Max-Planck-Institut fuer Kohlenforschung]                               
  Daniel Aravena         : Magnetic Suceptibility                        
  Michael Atanasov       : Ab Initio Ligand Field Theory (pilot matlab implementation)
  Alexander A. Auer      : GIAO ZORA, VPT2 properties, NMR spectrum      
  Ute Becker             : All parallelization in ORCA, NUMFREQ, NUMCALC 
  Giovanni Bistoni       : ED, misc. LED, open-shell LED, HFLD           
  Martin Brehm           : Molecular dynamics                            
  Dmytro Bykov           : pre 5.0 version of the SCF Hessian            
  Marcos Casanova-Páez   : Triplet and SCS-CIS(D). UHF-(DLPNO)-IP/EA/STEOM-CCSD. UHF-CVS-IP/STEOM-CCSD   
  Vijay G. Chilkuri      : MRCI spin determinant printing, contributions to CSF-ICE 
  Pauline Colinet        : FMM embedding                                 
  Dipayan Datta          : RHF DLPNO-CCSD density                        
  Achintya Kumar Dutta   : EOM-CC, STEOM-CC                              
  Nicolas Foglia         : Exact transition moments, OPA infrastructure, MCD improvements    
  Dmitry Ganyushin       : Spin-Orbit,Spin-Spin,Magnetic field MRCI      
  Miquel Garcia-Rates    : C-PCM and meta-GGA Hessian, CCSD/C-PCM, Gaussian charge scheme 
  Tiago L. C. Gouveia    : GS-ROHF, GS-ROCIS                             
  Yang Guo               : DLPNO-NEVPT2, F12-NEVPT2, CIM, IAO-localization        
  Andreas Hansen         : Spin unrestricted coupled pair/coupled cluster methods 
  Ingolf Harden          : AUTO-CI MPn and infrastructure                
  Benjamin Helmich-Paris : MC-RPA, TRAH-(SCF,CASSCF), AVAS, COSX integrals, SCF dyn. polar. 
  Lee Huntington         : MR-EOM, pCC                                   
  Robert Izsak           : Overlap fitted RIJCOSX, COSX-SCS-MP3, EOM     
  Riya Kayal             : Wick's Theorem for AUTO-CI, AUTO-CI UHF-CCSDT 
  Emily Kempfer          : AUTO-CI, RHF CISDT and CCSDT                  
  Christian Kollmar      : KDIIS, OOCD, Brueckner-CCSD(T), CCSD density, CASPT2, CASPT2-K, improved NEVPT2 
  Axel Koslowski         : Symmetry handling                             
  Simone Kossmann        : meta-GGA functionals, TD-DFT gradient, OOMP2, (MP2 Hessian; deprecated post 5.0) 
  Lucas Lang             : DCDCAS                                        
  Marvin Lechner         : AUTO-CI (C++ implementation), FIC-MRCC        
  Spencer Leger          : CASSCF response                               
  Dagmar Lenk            : GEPOL surface, SMD, ORCA-2-JSON               
  Dimitrios Liakos       : Extrapolation schemes; Compound Job, initial MDCI parallelization 
  Dimitrios Manganas     : Further ROCIS development; embedding schemes. LFT, Crystal Embedding 
  Dimitrios Pantazis     : SARC Basis sets                               
  Anastasios Papadopoulos: AUTO-CI, single reference methods and gradients 
  Taras Petrenko         : pre 6.0 DFT Hessian and TD-DFT gradient, (ASA, deprecated), ECA, 1-Electron XAS/XES, NRVS 
  Peter Pinski           : DLPNO-MP2, DLPNO-MP2 Gradient                 
  Christoph Reimann      : Effective Core Potentials                     
  Marius Retegan         : Local ZFS, SOC                                
  Christoph Riplinger    : Optimizer, TS searches, QM/MM, DLPNO-CCSD(T), (RO)-DLPNO pert. Triples 
  Michael Roemelt        : Original ROCIS implementation                 
  Masaaki Saitow         : Open-shell DLPNO-CCSD energy and density      
  Barbara Sandhoefer     : DKH picture change effects                    
  Kantharuban Sivalingam : CASSCF convergence/infrastructure, NEVPT2 and variants, FIC-MRCI 
  Bernardo de Souza      : ESD, SOC TD-DFT                               
  Georgi L. Stoychev     : AutoAux, RI-MP2 NMR, DLPNO-MP2 response, X2C  
  Van Anh Tran           : RI-MP2 g-tensors                              
  Willem Van den Heuvel  : Paramagnetic NMR                              
  Zikuan Wang            : NOTCH, Electric field optimization            
  Frank Wennmohs         : Technical directorship and infrastructure     
  Hang Xu                : AUTO-CI-Response properties                   
                                                                         
[FACCTs GmbH]                                                            
  Markus Bursch, Miquel Garcia-Rates, Christoph Riplinger, Bernardo de Souza, Georgi L. Stoychev 
                                                                 
  APM, Basis sets (HGBS, AHGBS, def-TZVP (Ac-Lr), def2-XVPD (La-Lu)), CI-OPT, improved COSX, DLPNO-Multilevel,           
  DOCKER, DRACO, updates on ESD, GOAT, IRC, LR-CPCM, MBIS, meta-GGA TD-DFT gradient, ML-optimized integration grids, 
  MM, NACMEs, nearIR, NEB, NEB-TS, NL-DFT gradient (VV10), 2- and 3-layer-ONIOM, interface openCOSMO-RS, QMMM,   
  Crystal-QMMM, SF, symmetry and pop. for TD-DFT, r2SCAN hybrids, SOLVATOR                                   
                                                                         
[Other institutions]                                                     
  V. Asgeirsson          : NEB                                           
  Christoph Bannwarth    : sTDA-DFT, sTD-DFT, PBEh-3c, B97-3c, D3        
  Sebastian Ehlert       : rSCAN, r2SCAN, r2SCAN-3c, D4, dhf basis sets  
  Marvin Friede          : D4 for Fr, Ra, Ac-Lr                          
  Lars Goerigk           : TD-DFT with DH, B97 family of functionals     
  Stefan Grimme          : VdW corrections, initial TS optimization, DFT functionals, gCP, sTDA/sTD-DF 
  Waldemar Hujo          : DFT-NL                                        
  H. Jonsson             : NEB                                           
  Holger Kruse           : gCP                                           
  Marcel Mueller         : wB97X-3c, vDZP basis set                      
  Hagen Neugebauer       : wr2SCAN                                       
  Tobias Risthaus        : range-separated hybrid DFT                    
  Lukas Wittmann         : regularized MP2, r2SCAN double-hybrids, wr2SCAN        
                                                                         
We gratefully acknowledge several colleagues who have allowed us to      
interface, adapt or use parts of their codes:                            
  Ed Valeev, F. Pavosevic, A. Kumar             : LibInt (2-el integral package), F12 methods 
  Garnet Chan, S. Sharma, J. Yang, R. Olivares  : DMRG                   
  Ulf Ekstrom                                   : XCFun DFT Library      
  Mihaly Kallay                                 : mrcc  (arbitrary order and MRCC methods)
  Frank Weinhold                                : gennbo (NPA and NBO analysis)           
  Simon Mueller                                 : openCOSMO-RS                            
  Christopher J. Cramer and Donald G. Truhlar   : smd solvation model                     
  S Lehtola, MJT Oliveira, MAL Marques          : LibXC Library                           
  Liviu Ungur et al                             : ANISO software                          


 Your calculation uses the libint2 library for the computation of 2-el integrals
 For citations please refer to: http://libint.valeyev.net

 Your ORCA version has been built with support for libXC version: 6.2.2
 For citations please refer to: https://libxc.gitlab.io

 This ORCA versions uses:
   CBLAS   interface :  Fast vector & matrix operations
   LAPACKE interface :  Fast linear algebra routines
   SCALAPACK package :  Parallel linear algebra routines
   Shared memory     :  Shared parallel matrices
   BLAS/LAPACK       :  OpenBLAS 0.3.27  USE64BITINT DYNAMIC_ARCH NO_AFFINITY SkylakeX SINGLE_THREADED
        Core in use  :  SkylakeX
   Copyright (c) 2011-2014, The OpenBLAS Project


Your calculation utilizes the atom-pairwise dispersion correction
based on EEQ partial charges (D4)


================================================================================

cite the ECPs for C  [vDZP-ECP] as follows:
   B-Ne (ecp-2-mwb), Al-Ar (ecp-10-mwb), Ga-Kr (ecp-28-mwb), Y-Cd (ecp-28-mwb), In-Xe (ecp-46-mwb):
     A. Bergner, M. Dolg, W. Küchle, H. Stoll, and H. Preuß, Mol. Phys. 80, 1431 (1993)., T. Leininger, A. Berning, A. Nicklass, H. Stoll, H.-J. Werner, and H.-J.Flad, Chem. Phys. 217, 19 (1997).
   Na-Mg, K-Ca, Rb-Sr, Cs-Ba (CRENBL):
     L. Fernandez Pacios and P. A. Christiansen, J. Chem. Phys. 82, 2664 (1985)., M. M. Hurley, L. F. Pacios, P. A. Christiansen, R. B. Ross, and W. C. Ermler, J. Chem. Phys. 84, 6840 (1986)., L. A. LaJohn, P. A. Christiansen, R. B. Ross, T. Atashroo, and W. C. Ermler, J. Chem. Phys. 87, 2812 (1987)., R. B. Ross, J. M. Powers, T. Atashroo, W. C. Ermler, L. A. LaJohn, and P. A. Christiansen, J. Chem. Phys. 93, 6654 (1990). 
   Sc-Zn (ecp-10-mdf):
     M. Dolg, U. Wedig, H. Stoll, and H. Preuss, J. Chem. Phys. 86, 866 (1986). 
   Y-Cd (ecp-28-mwb), Hf-Hg (ecp-60-mwb):
     D. Andrae, U. Häußermann, M. Dolg, H. Stoll, and H. Preuß, Theor. Chim. Acta 77, 123 (1990). 
   La (ecp-46-mwb):
     M. Dolg, H. Stoll, and H. Preuss, J. Chem. Phys. 90, 1730 (1989)., M. Dolg, H. Stoll, and H. Preuss, Theor. Chim. Acta 85, 441 (1993).
   Ce-Lu (SBKJC-ecp):
     T. R. Cundari and W. J. Stevens, J. Chem. Phys. 98, 5555 (1993).
   Tl-Rn (ecp-78-mwb):
     W. Küchle, M. Dolg, H. Stoll, and H. Preuss, Mol. Phys. 74, 1245 (1991).

ECP parameters for C  [vDZP-ECP] have been obtained from:
MM, AH, SG, J. Chem. Phys. 158, 014103 (2023), 10.1063/5.0133026

----- Orbital basis set information -----
Your calculation utilizes the basis: vDZP
   Marcel Mueller, Andreas Hansen, Stefan Grimme 
   J. Chem. Phys. 158, 014103 (2023). DOI: 10.1063/5.0133026

----- AuxJ basis set information -----
Your calculation utilizes the auxiliary basis: def2/J
   F. Weigend, Phys. Chem. Chem. Phys. 8, 1057 (2006).

================================================================================
                                        WARNINGS
                       Please study these warnings very carefully!
================================================================================

WARNING: Frozen-Core approximation turned on, but there are no core electrons.
  ===> : Turning off frozen-core approximation


WARNING: Geometry Optimization
  ===> : Switching off AutoStart
         For restart on a previous wavefunction, please use MOREAD

================================================================================
                                       INPUT FILE
================================================================================
NAME = ./output/beta_bourbonene/beta_bourbonene.inp
|  1> ! wB97X-3c OPT FREQ TightSCF
|  2> %pal
|  3>   nprocs 40
|  4> end
|  5> * xyz 0 1
|  6> C     -1.949608    -2.375053     0.614334
|  7> C     -2.277255    -0.969625     0.087230
|  8> C     -3.759396    -0.665077     0.360056
|  9> C     -1.351431     0.095055     0.742821
| 10> C     -1.657623     1.536784     0.337786
| 11> C     -0.396564     2.313446     0.689595
| 12> C      0.768761     1.321777     0.521635
| 13> C      0.158884    -0.083044     0.476807
| 14> C      0.609808    -0.218088    -0.995346
| 15> C      1.222858     1.175554    -0.954152
| 16> C      2.728913     1.037366    -1.260502
| 17> C      3.078264    -0.448411    -1.221962
| 18> C      1.764801    -1.144674    -1.180243
| 19> C      1.635044    -2.467590    -1.321056
| 20> C      1.864785     1.483198     1.591125
| 21> H     -0.892980    -2.636782     0.411871
| 22> H     -2.587837    -3.132752     0.111562
| 23> H     -2.122473    -2.431875     1.710629
| 24> H     -2.142494    -0.971238    -1.013675
| 25> H     -4.402381    -1.469432    -0.057312
| 26> H     -3.949821    -0.586058     1.452050
| 27> H     -4.059673     0.284902    -0.129344
| 28> H     -1.491852     0.032372     1.846950
| 29> H     -2.536207     1.940182     0.886669
| 30> H     -1.842347     1.600632    -0.757597
| 31> H     -0.471680     2.652645     1.746640
| 32> H     -0.278877     3.210668     0.044138
| 33> H      0.641255    -0.814442     1.165325
| 34> H     -0.178485    -0.309559    -1.770536
| 35> H      0.712935     1.876926    -1.652696
| 36> H      2.911013     1.419041    -2.289102
| 37> H      3.368993     1.630852    -0.576160
| 38> H      3.663655    -0.694068    -0.310144
| 39> H      3.651107    -0.740499    -2.129182
| 40> H      0.655273    -2.931612    -1.320175
| 41> H      2.509761    -3.095565    -1.458573
| 42> H      2.354590     2.473820     1.484178
| 43> H      2.630131     0.683554     1.510426
| 44> H      1.418154     1.416668     2.605930
| 45> *
| 46> 
| 47>                          ****END OF INPUT****
================================================================================

                       *****************************
                       * Geometry Optimization Run *
                       *****************************

Geometry optimization settings:
Update method            Update   .... BFGS
Choice of coordinates    CoordSys .... (2022) Redundant Internals
Initial Hessian          InHess   .... Almloef's Model
Max. no of cycles        MaxIter  .... 117

Convergence Tolerances:
Energy Change            TolE     ....  5.0000e-06 Eh
Max. Gradient            TolMAXG  ....  3.0000e-04 Eh/bohr
RMS Gradient             TolRMSG  ....  1.0000e-04 Eh/bohr
Max. Displacement        TolMAXD  ....  4.0000e-03 bohr
RMS Displacement         TolRMSD  ....  2.0000e-03 bohr
Strict Convergence                .... False

------------------------------------------------------------------------------
                        ORCA OPTIMIZATION COORDINATE SETUP
------------------------------------------------------------------------------

The optimization will be done in redundant internal coordinates (2022)
Making redundant internal coordinates   ...  (2022 redundants) done
Evaluating the initial hessian          ...  (Almloef) done
Evaluating the coordinates              ...  done
Calculating the B-matrix                .... done
Calculating the G-matrix                .... done
Diagonalizing the G-matrix              .... done
Small eigenvalue found = 1.090e-02
Small eigenvalue found = 2.524e-02
The first mode is                       ....  112
The number of degrees of freedom        ....  111

    -----------------------------------------------------------------
                    Redundant Internal Coordinates


    -----------------------------------------------------------------
         Definition                    Initial Value    Approx d2E/dq
    -----------------------------------------------------------------
      1. B(C   1,C   0)                  1.5364         0.364940   
      2. B(C   2,C   1)                  1.5375         0.363414   
      3. B(C   3,C   1)                  1.5558         0.339802   
      4. B(C   4,C   3)                  1.5285         0.375604   
      5. B(C   5,C   4)                  1.5222         0.384364   
      6. B(C   6,C   5)                  1.5394         0.360960   
      7. B(C   7,C   3)                  1.5439         0.355017   
      8. B(C   7,C   6)                  1.5321         0.370637   
      9. B(C   8,C   7)                  1.5456         0.352799   
     10. B(C   9,C   6)                  1.5510         0.345867   
     11. B(C   9,C   8)                  1.5231         0.383197   
     12. B(C  10,C   9)                  1.5431         0.356026   
     13. B(C  11,C  10)                  1.5268         0.378017   
     14. B(C  12,C  11)                  1.4872         0.437212   
     15. B(C  12,C   8)                  1.4922         0.429174   
     16. B(C  13,C  12)                  1.3367         0.759928   
     17. B(C  14,C   6)                  1.5398         0.360300   
     18. B(H  15,C   0)                  1.1072         0.338015   
     19. B(H  16,C   0)                  1.1110         0.333418   
     20. B(H  17,C   0)                  1.1113         0.333005   
     21. B(H  18,C   1)                  1.1091         0.335670   
     22. B(H  19,C   2)                  1.1111         0.333203   
     23. B(H  20,C   2)                  1.1113         0.333014   
     24. B(H  21,C   2)                  1.1100         0.334570   
     25. B(H  22,C   3)                  1.1148         0.328760   
     26. B(H  23,C   4)                  1.1117         0.332489   
     27. B(H  24,C   4)                  1.1127         0.331309   
     28. B(H  25,C   5)                  1.1127         0.331321   
     29. B(H  26,C   5)                  1.1115         0.332730   
     30. B(H  27,C   7)                  1.1143         0.329338   
     31. B(H  28,C   8)                  1.1094         0.335372   
     32. B(H  29,C   9)                  1.1135         0.330303   
     33. B(H  30,C  10)                  1.1121         0.331972   
     34. B(H  31,C  10)                  1.1092         0.335616   
     35. B(H  32,C  11)                  1.1111         0.333297   
     36. B(H  33,C  11)                  1.1120         0.332159   
     37. B(H  34,C  13)                  1.0841         0.367993   
     38. B(H  35,C  13)                  1.0855         0.366051   
     39. B(H  36,C  14)                  1.1103         0.334271   
     40. B(H  37,C  14)                  1.1098         0.334814   
     41. B(H  38,C  14)                  1.1107         0.333688   
     42. A(H  15,C   0,H  16)          107.7137         0.284532   
     43. A(C   1,C   0,H  16)          110.2500         0.319033   
     44. A(C   1,C   0,H  15)          110.9171         0.319747   
     45. A(H  15,C   0,H  17)          108.4662         0.284477   
     46. A(H  16,C   0,H  17)          108.7969         0.283872   
     47. A(C   1,C   0,H  17)          110.6130         0.318969   
     48. A(C   2,C   1,C   3)          111.3047         0.355859   
     49. A(C   0,C   1,H  18)          108.2583         0.319384   
     50. A(C   2,C   1,H  18)          107.0704         0.319166   
     51. A(C   0,C   1,C   2)          109.0201         0.360205   
     52. A(C   0,C   1,C   3)          110.7647         0.356113   
     53. A(C   3,C   1,H  18)          110.3012         0.315692   
     54. A(H  19,C   2,H  21)          107.3006         0.284050   
     55. A(C   1,C   2,H  19)          110.3524         0.318782   
     56. A(C   1,C   2,H  21)          110.6134         0.318995   
     57. A(H  19,C   2,H  20)          108.7487         0.283845   
     58. A(H  20,C   2,H  21)          109.0281         0.284025   
     59. A(C   1,C   2,H  20)          110.7099         0.318752   
     60. A(C   1,C   3,C   7)          115.5055         0.354451   
     61. A(C   7,C   3,H  22)          106.7020         0.316876   
     62. A(C   1,C   3,H  22)          107.6933         0.314627   
     63. A(C   4,C   3,C   7)          105.0176         0.360538   
     64. A(C   1,C   3,C   4)          114.4945         0.357860   
     65. A(C   4,C   3,H  22)          106.8732         0.319802   
     66. A(H  23,C   4,H  24)          109.5133         0.283524   
     67. A(C   5,C   4,H  24)          109.6195         0.321415   
     68. A(C   5,C   4,H  23)          110.8214         0.321602   
     69. A(C   3,C   4,H  23)          111.6994         0.320392   
     70. A(C   3,C   4,H  24)          110.3800         0.320206   
     71. A(C   3,C   4,C   5)          104.7171         0.365464   
     72. A(H  25,C   5,H  26)          108.2243         0.283558   
     73. A(C   4,C   5,H  25)          108.6126         0.321417   
     74. A(C   4,C   5,C   6)          105.8568         0.362987   
     75. A(C   6,C   5,H  26)          112.1169         0.318356   
     76. A(C   4,C   5,H  26)          111.4290         0.321640   
     77. A(C   6,C   5,H  25)          110.5577         0.318136   
     78. A(C   7,C   6,C   9)           90.1295         0.358126   
     79. A(C   7,C   6,C  14)          113.5633         0.360628   
     80. A(C   5,C   6,C  14)          113.2981         0.359007   
     81. A(C   5,C   6,C   9)          112.7182         0.356519   
     82. A(C   5,C   6,C   7)          107.0096         0.360741   
     83. A(C   9,C   6,C  14)          117.5395         0.356409   
     84. A(C   6,C   7,H  27)          114.2948         0.319199   
     85. A(C   3,C   7,H  27)          113.1247         0.316966   
     86. A(C   6,C   7,C   8)           89.5330         0.359338   
     87. A(C   3,C   7,C   8)          117.3618         0.356716   
     88. A(C   3,C   7,C   6)          106.1760         0.359721   
     89. A(C   8,C   7,H  27)          113.8842         0.316643   
     90. A(C   7,C   8,C   9)           90.6716         0.361385   
     91. A(C   9,C   8,H  28)          112.3559         0.321897   
     92. A(C   7,C   8,H  28)          117.7403         0.317580   
     93. A(C   9,C   8,C  12)          105.0688         0.373738   
     94. A(C   7,C   8,C  12)          113.4589         0.368461   
     95. A(C  12,C   8,H  28)          114.3438         0.327947   
     96. A(C   6,C   9,H  29)          113.7948         0.315773   
     97. A(C   8,C   9,C  10)          107.7903         0.361947   
     98. A(C   6,C   9,C   8)           89.6651         0.360164   
     99. A(C   8,C   9,H  29)          112.0276         0.321095   
    100. A(C   6,C   9,C  10)          118.8881         0.355687   
    101. A(C  10,C   9,H  29)          112.2601         0.317264   
    102. A(C   9,C  10,C  11)          107.7857         0.361107   
    103. A(H  30,C  10,H  31)          107.0088         0.284025   
    104. A(C  11,C  10,H  31)          111.9059         0.321219   
    105. A(C   9,C  10,H  31)          113.1302         0.318090   
    106. A(C  11,C  10,H  30)          108.6541         0.320645   
    107. A(C   9,C  10,H  30)          108.2215         0.317524   
    108. A(C  10,C  11,C  12)          104.7276         0.374057   
    109. A(H  32,C  11,H  33)          109.8802         0.283744   
    110. A(C  12,C  11,H  33)          110.7866         0.328431   
    111. A(C  10,C  11,H  33)          110.6647         0.320675   
    112. A(C  12,C  11,H  32)          109.8036         0.328616   
    113. A(C  10,C  11,H  32)          110.8816         0.320855   
    114. A(C  11,C  12,C  13)          123.1017         0.422865   
    115. A(C   8,C  12,C  13)          123.5355         0.421466   
    116. A(C   8,C  12,C  11)          113.3507         0.382365   
    117. A(H  34,C  13,H  35)          118.7337         0.292586   
    118. A(C  12,C  13,H  35)          120.5075         0.366376   
    119. A(C  12,C  13,H  34)          120.7476         0.366709   
    120. A(H  37,C  14,H  38)          107.4920         0.284147   
    121. A(H  36,C  14,H  38)          108.5929         0.284075   
    122. A(C   6,C  14,H  38)          110.0031         0.318410   
    123. A(H  36,C  14,H  37)          109.3684         0.284224   
    124. A(C   6,C  14,H  37)          111.3962         0.318585   
    125. A(C   6,C  14,H  36)          109.9158         0.318501   
    126. D(C   3,C   1,C   0,H  16)   -177.7770         0.010665   
    127. D(C   3,C   1,C   0,H  15)    -58.5554         0.010665   
    128. D(C   3,C   1,C   0,H  17)     61.8454         0.010665   
    129. D(C   2,C   1,C   0,H  15)    178.6445         0.010665   
    130. D(C   2,C   1,C   0,H  16)     59.4229         0.010665   
    131. D(C   2,C   1,C   0,H  17)    -60.9546         0.010665   
    132. D(H  20,C   2,C   1,C   3)    -55.8466         0.010582   
    133. D(H  20,C   2,C   1,H  18)   -176.4652         0.010582   
    134. D(H  20,C   2,C   1,C   0)     66.6292         0.010582   
    135. D(H  19,C   2,C   1,C   0)    -53.8181         0.010582   
    136. D(H  19,C   2,C   1,H  18)     63.0874         0.010582   
    137. D(H  19,C   2,C   1,C   3)   -176.2940         0.010582   
    138. D(C   4,C   3,C   1,C   2)    -55.2251         0.009350   
    139. D(C   7,C   3,C   1,C   0)     61.1118         0.009350   
    140. D(C   4,C   3,C   1,C   0)   -176.6895         0.009350   
    141. D(C   4,C   3,C   1,H  18)     63.4743         0.009350   
    142. D(C   7,C   3,C   1,H  18)    -58.7244         0.009350   
    143. D(C   7,C   3,C   1,C   2)   -177.4238         0.009350   
    144. D(C   5,C   4,C   3,H  22)     79.4412         0.011258   
    145. D(H  23,C   4,C   3,H  22)    -40.5631         0.011258   
    146. D(H  23,C   4,C   3,C   7)   -153.6618         0.011258   
    147. D(C   5,C   4,C   3,C   7)    -33.6574         0.011258   
    148. D(H  23,C   4,C   3,C   1)     78.5933         0.011258   
    149. D(C   5,C   4,C   3,C   1)   -161.4023         0.011258   
    150. D(H  25,C   5,C   4,H  24)    153.5688         0.011761   
    151. D(H  25,C   5,C   4,H  23)     32.5745         0.011761   
    152. D(H  25,C   5,C   4,C   3)    -88.0145         0.011761   
    153. D(C   6,C   5,C   4,H  23)    151.3153         0.011761   
    154. D(C   6,C   5,C   4,C   3)     30.7262         0.011761   
    155. D(C   6,C   5,C   4,H  24)    -87.6905         0.011761   
    156. D(C   7,C   6,C   5,C   4)    -15.9958         0.010449   
    157. D(C   9,C   6,C   5,H  26)    -40.1843         0.010449   
    158. D(C   9,C   6,C   5,H  25)   -161.0449         0.010449   
    159. D(C   9,C   6,C   5,C   4)     81.5110         0.010449   
    160. D(C   7,C   6,C   5,H  26)   -137.6910         0.010449   
    161. D(C   7,C   6,C   5,H  25)    101.4484         0.010449   
    162. D(C   8,C   7,C   6,C  14)   -120.5799         0.010979   
    163. D(C   8,C   7,C   6,C   5)    113.6418         0.010979   
    164. D(C   3,C   7,C   6,C  14)    120.9822         0.010979   
    165. D(C   3,C   7,C   6,C   9)   -118.6594         0.010979   
    166. D(C   3,C   7,C   6,C   5)     -4.7960         0.010979   
    167. D(C   8,C   7,C   3,H  22)    172.3775         0.010132   
    168. D(C   8,C   7,C   3,C   4)    -74.4031         0.010132   
    169. D(C   8,C   7,C   3,C   1)     52.7260         0.010132   
    170. D(C   6,C   7,C   3,C   4)     23.6770         0.010132   
    171. D(C   8,C   7,C   6,C   9)     -0.2216         0.010979   
    172. D(C   6,C   7,C   3,H  22)    -89.5423         0.010132   
    173. D(C   6,C   7,C   3,C   1)    150.8061         0.010132   
    174. D(C  12,C   8,C   7,H  27)     -9.5165         0.010016   
    175. D(C  12,C   8,C   7,C   6)    106.9945         0.010016   
    176. D(C  12,C   8,C   7,C   3)   -144.9780         0.010016   
    177. D(C   9,C   8,C   7,H  27)   -116.2853         0.010016   
    178. D(C   9,C   8,C   7,C   6)      0.2257         0.010016   
    179. D(C   9,C   8,C   7,C   3)    108.2533         0.010016   
    180. D(C   6,C   9,C   8,C  12)   -114.7707         0.011693   
    181. D(C   6,C   9,C   8,C   7)     -0.2229         0.011693   
    182. D(C  10,C   9,C   6,C  14)      6.8718         0.009657   
    183. D(C  10,C   9,C   6,C   7)   -110.0019         0.009657   
    184. D(C  10,C   9,C   6,C   5)    141.4510         0.009657   
    185. D(C   8,C   9,C   6,C  14)    117.0986         0.009657   
    186. D(C   8,C   9,C   6,C   7)      0.2249         0.009657   
    187. D(C   6,C   9,C   8,H  28)    120.3177         0.011693   
    188. D(C   8,C   9,C   6,C   5)   -108.3222         0.009657   
    189. D(C  10,C   9,C   8,H  28)   -119.3181         0.011693   
    190. D(C  10,C   9,C   8,C  12)      5.5935         0.011693   
    191. D(C  10,C   9,C   8,C   7)    120.1413         0.011693   
    192. D(H  30,C  10,C   9,H  29)    -17.1794         0.010186   
    193. D(H  30,C  10,C   9,C   8)    106.6656         0.010186   
    194. D(H  30,C  10,C   9,C   6)   -153.5445         0.010186   
    195. D(C  11,C  10,C   9,H  29)   -134.5178         0.010186   
    196. D(C  11,C  10,C   9,C   8)    -10.6728         0.010186   
    197. D(C  11,C  10,C   9,C   6)     89.1171         0.010186   
    198. D(H  32,C  11,C  10,H  31)     17.8620         0.011395   
    199. D(H  32,C  11,C  10,H  30)    135.7999         0.011395   
    200. D(H  32,C  11,C  10,C   9)   -107.1424         0.011395   
    201. D(C  12,C  11,C  10,H  31)    136.2351         0.011395   
    202. D(C  12,C  11,C  10,H  30)   -105.8270         0.011395   
    203. D(C  12,C  11,C  10,C   9)     11.2308         0.011395   
    204. D(C  13,C  12,C  11,H  32)    -70.2564         0.014108   
    205. D(C   8,C  12,C  11,H  33)   -127.4780         0.014108   
    206. D(C   8,C  12,C  11,H  32)    110.9692         0.014108   
    207. D(C   8,C  12,C  11,C  10)     -8.1328         0.014108   
    208. D(C  13,C  12,C   8,C   9)   -177.1347         0.013604   
    209. D(C  13,C  12,C   8,C   7)     85.3916         0.013604   
    210. D(C  11,C  12,C   8,H  28)    125.2862         0.013604   
    211. D(C  13,C  12,C  11,C  10)    170.6415         0.014108   
    212. D(C  11,C  12,C   8,C   9)      1.6335         0.013604   
    213. D(C  11,C  12,C   8,C   7)    -95.8402         0.013604   
    214. D(H  35,C  13,C  12,C  11)      0.9954         0.041290   
    215. D(H  35,C  13,C  12,C   8)    179.6453         0.041290   
    216. D(H  34,C  13,C  12,C  11)   -177.7709         0.041290   
    217. D(H  34,C  13,C  12,C   8)      0.8791         0.041290   
    218. D(H  37,C  14,C   6,C   9)    -52.0510         0.010414   
    219. D(H  37,C  14,C   6,C   7)     51.2576         0.010414   
    220. D(H  37,C  14,C   6,C   5)    173.6208         0.010414   
    221. D(H  36,C  14,C   6,C   9)     69.3353         0.010414   
    222. D(H  36,C  14,C   6,C   7)    172.6439         0.010414   
    223. D(H  36,C  14,C   6,C   5)    -64.9929         0.010414   
    -----------------------------------------------------------------

Number of atoms                         .... 39
Number of degrees of freedom            .... 223


         *************************************************************
         *                GEOMETRY OPTIMIZATION CYCLE   1            *
         *************************************************************
---------------------------------
CARTESIAN COORDINATES (ANGSTROEM)
---------------------------------
  C     -1.949608   -2.375053    0.614334
  C     -2.277255   -0.969625    0.087230
  C     -3.759396   -0.665077    0.360056
  C     -1.351431    0.095055    0.742821
  C     -1.657623    1.536784    0.337786
  C     -0.396564    2.313446    0.689595
  C      0.768761    1.321777    0.521635
  C      0.158884   -0.083044    0.476807
  C      0.609808   -0.218088   -0.995346
  C      1.222858    1.175554   -0.954152
  C      2.728913    1.037366   -1.260502
  C      3.078264   -0.448411   -1.221962
  C      1.764801   -1.144674   -1.180243
  C      1.635044   -2.467590   -1.321056
  C      1.864785    1.483198    1.591125
  H     -0.892980   -2.636782    0.411871
  H     -2.587837   -3.132752    0.111562
  H     -2.122473   -2.431875    1.710629
  H     -2.142494   -0.971238   -1.013675
  H     -4.402381   -1.469432   -0.057312
  H     -3.949821   -0.586058    1.452050
  H     -4.059673    0.284902   -0.129344
  H     -1.491852    0.032372    1.846950
  H     -2.536207    1.940182    0.886669
  H     -1.842347    1.600632   -0.757597
  H     -0.471680    2.652645    1.746640
  H     -0.278877    3.210668    0.044138
  H      0.641255   -0.814442    1.165325
  H     -0.178485   -0.309559   -1.770536
  H      0.712935    1.876926   -1.652696
  H      2.911013    1.419041   -2.289102
  H      3.368993    1.630852   -0.576160
  H      3.663655   -0.694068   -0.310144
  H      3.651107   -0.740499   -2.129182
  H      0.655273   -2.931612   -1.320175
  H      2.509761   -3.095565   -1.458573
  H      2.354590    2.473820    1.484178
  H      2.630131    0.683554    1.510426
  H      1.418154    1.416668    2.605930

----------------------------
CARTESIAN COORDINATES (A.U.)
----------------------------
  NO LB      ZA    FRAG     MASS         X           Y           Z
   0 C     4.0000*   0    12.011   -3.684225   -4.488200    1.160923
   1 C     4.0000*   0    12.011   -4.303388   -1.832326    0.164841
   2 C     4.0000*   0    12.011   -7.104229   -1.256813    0.680407
   3 C     4.0000*   0    12.011   -2.553834    0.179628    1.403728
   4 C     4.0000*   0    12.011   -3.132454    2.904101    0.638323
   5 C     4.0000*   0    12.011   -0.749397    4.371779    1.303146
   6 C     4.0000*   0    12.011    1.452748    2.497797    0.985747
   7 C     4.0000*   0    12.011    0.300247   -0.156930    0.901035
   8 C     4.0000*   0    12.011    1.152370   -0.412127   -1.880931
   9 C     4.0000*   0    12.011    2.310867    2.221475   -1.803086
  10 C     4.0000*   0    12.011    5.156898    1.960338   -2.382004
  11 C     4.0000*   0    12.011    5.817076   -0.847374   -2.309174
  12 C     4.0000*   0    12.011    3.334991   -2.163120   -2.230336
  13 C     4.0000*   0    12.011    3.089785   -4.663069   -2.496434
  14 C     4.0000*   0    12.011    3.523933    2.802838    3.006790
  15 H     1.0000    0     1.008   -1.687488   -4.982796    0.778323
  16 H     1.0000    0     1.008   -4.890303   -5.920043    0.210822
  17 H     1.0000    0     1.008   -4.010893   -4.595578    3.232620
  18 H     1.0000    0     1.008   -4.048727   -1.835374   -1.915568
  19 H     1.0000    0     1.008   -8.319294   -2.776824   -0.108304
  20 H     1.0000    0     1.008   -7.464080   -1.107489    2.743977
  21 H     1.0000    0     1.008   -7.671670    0.538387   -0.244425
  22 H     1.0000    0     1.008   -2.819192    0.061174    3.490230
  23 H     1.0000    0     1.008   -4.792737    3.666413    1.675562
  24 H     1.0000    0     1.008   -3.481531    3.024756   -1.431651
  25 H     1.0000    0     1.008   -0.891346    5.012773    3.300671
  26 H     1.0000    0     1.008   -0.527001    6.067283    0.083409
  27 H     1.0000    0     1.008    1.211796   -1.539072    2.202145
  28 H     1.0000    0     1.008   -0.337288   -0.584982   -3.345828
  29 H     1.0000    0     1.008    1.347252    3.546876   -3.123143
  30 H     1.0000    0     1.008    5.501017    2.681599   -4.325776
  31 H     1.0000    0     1.008    6.366474    3.081864   -1.088785
  32 H     1.0000    0     1.008    6.923305   -1.311598   -0.586087
  33 H     1.0000    0     1.008    6.899592   -1.399340   -4.023571
  34 H     1.0000    0     1.008    1.238287   -5.539944   -2.494769
  35 H     1.0000    0     1.008    4.742761   -5.849770   -2.756304
  36 H     1.0000    0     1.008    4.449530    4.674842    2.804690
  37 H     1.0000    0     1.008    4.970227    1.291730    2.854291
  38 H     1.0000    0     1.008    2.679923    2.677115    4.924494
* core charge reduced due to ECP

--------------------------------
INTERNAL COORDINATES (ANGSTROEM)
--------------------------------
 C      0   0   0     0.000000000000     0.00000000     0.00000000
 C      1   0   0     1.536365531574     0.00000000     0.00000000
 C      2   1   0     1.537506245340   109.02010855     0.00000000
 C      2   1   3     1.555793411947   110.76468030   122.80008569
 C      4   2   1     1.528525237453   114.49453198   183.31051547
 C      5   4   2     1.522249400133   104.71710471   198.59770265
 C      6   5   4     1.539350617236   105.85678847    30.72622098
 C      7   6   5     1.532149322603   107.00962244   344.00424474
 C      8   7   6     1.545575553353    89.53298036   113.64181303
 C      9   8   7     1.523077566081    90.67159125     0.22567242
 C     10   9   8     1.543096856607   107.79027957   120.14127798
 C     11  10   9     1.526782481734   107.78573998   349.32716042
 C     12  11  10     1.487181122964   104.72756258    11.23075683
 C     13  12  11     1.336701882648   123.10165461   170.64153101
 C      7   6   5     1.539848761378   113.29811469   218.06694517
 H      1   2   3     1.107229003501   110.91706037   178.64452982
 H      1   2   3     1.110956216521   110.24999247    59.42294968
 H      1   2   3     1.111293739267   110.61304935   299.04535069
 H      2   1   3     1.109123504356   108.25826090   243.85226768
 H      3   2   1     1.111131281026   110.35243122   306.18187115
 H      3   2   1     1.111286002351   110.70988621    66.62923320
 H      3   2   1     1.110017449039   110.61335610   187.60008548
 H      4   2   1     1.114786107005   107.69329551   302.00522860
 H      5   4   2     1.111715943553   111.69940917    78.59333599
 H      5   4   2     1.112682991678   110.37995172   316.49730585
 H      6   5   4     1.112673585146   108.61258372   271.98545349
 H      6   5   4     1.111518009797   111.42897534   152.86263443
 H      8   7   6     1.114307790679   114.29479841   229.78180388
 H      9   8   7     1.109365734909   117.74033484   244.38013086
 H     10   9   8     1.113511503420   112.02761876   244.12694283
 H     11  10   9     1.112139458712   108.22148231   106.66556484
 H     11  10   9     1.109167260408   113.13018456   225.05760001
 H     12  11  10     1.111054476456   110.88161671   252.85763281
 H     12  11  10     1.111985895051   110.66468457   130.65789591
 H     14  13  12     1.084097968399   120.74757688   182.22911740
 H     14  13  12     1.085538279382   120.50745625     0.99535443
 H     15   7   6     1.110260575594   109.91576312   295.00713205
 H     15   7   6     1.109818613582   111.39619270   173.62084982
 H     15   7   6     1.110736097859   110.00308995    54.53099320

---------------------------
INTERNAL COORDINATES (A.U.)
---------------------------
 C      0   0   0     0.000000000000     0.00000000     0.00000000
 C      1   0   0     2.903310096271     0.00000000     0.00000000
 C      2   1   0     2.905465732887   109.02010855     0.00000000
 C      2   1   3     2.940023469538   110.76468030   122.80008569
 C      4   2   1     2.888494087573   114.49453198   183.31051547
 C      5   4   2     2.876634473778   104.71710471   198.59770265
 C      6   5   4     2.908951090659   105.85678847    30.72622098
 C      7   6   5     2.895342615993   107.00962244   344.00424474
 C      8   7   6     2.920714515120    89.53298036   113.64181303
 C      9   8   7     2.878199480613    90.67159125     0.22567242
 C     10   9   8     2.916030457101   107.79027957   120.14127798
 C     11  10   9     2.885200756546   107.78573998   349.32716042
 C     12  11  10     2.810365033938   104.72756258    11.23075683
 C     13  12  11     2.526000480901   123.10165461   170.64153101
 C      7   6   5     2.909892446662   113.29811469   218.06694517
 H      1   2   3     2.092359584152   110.91706037   178.64452982
 H      1   2   3     2.099402996001   110.24999247    59.42294968
 H      1   2   3     2.100040821556   110.61304935   299.04535069
 H      2   1   3     2.095939671928   108.25826090   243.85226768
 H      3   2   1     2.099733819972   110.35243122   306.18187115
 H      3   2   1     2.100026200904   110.70988621    66.62923320
 H      3   2   1     2.097628982557   110.61335610   187.60008548
 H      4   2   1     2.106640440139   107.69329551   302.00522860
 H      5   4   2     2.100838672028   111.69940917    78.59333599
 H      5   4   2     2.102666128143   110.37995172   316.49730585
 H      6   5   4     2.102648352375   108.61258372   271.98545349
 H      6   5   4     2.100464631437   111.42897534   152.86263443
 H      8   7   6     2.105736553279   114.29479841   229.78180388
 H      9   8   7     2.096397421334   117.74033484   244.38013086
 H     10   9   8     2.104231788435   112.02761876   244.12694283
 H     11  10   9     2.101638999694   108.22148231   106.66556484
 H     11  10   9     2.096022358882   113.13018456   225.05760001
 H     12  11  10     2.099588680370   110.88161671   252.85763281
 H     12  11  10     2.101348806430   110.66468457   130.65789591
 H     14  13  12     2.048648262614   120.74757688   182.22911740
 H     14  13  12     2.051370055920   120.50745625     0.99535443
 H     15   7   6     2.098088425162   109.91576312   295.00713205
 H     15   7   6     2.097253237998   111.39619270   173.62084982
 H     15   7   6     2.098987032013   110.00308995    54.53099320

---------------------
BASIS SET INFORMATION
---------------------
There are 2 groups of distinct atoms

 Group   1 Type C   : 6s6p2d contracted to 2s2p1d pattern {42/42/2}
 Group   2 Type H   : 8s2p contracted to 2s1p pattern {53/2}

Atom   0C    basis set group =>   1
Atom   1C    basis set group =>   1
Atom   2C    basis set group =>   1
Atom   3C    basis set group =>   1
Atom   4C    basis set group =>   1
Atom   5C    basis set group =>   1
Atom   6C    basis set group =>   1
Atom   7C    basis set group =>   1
Atom   8C    basis set group =>   1
Atom   9C    basis set group =>   1
Atom  10C    basis set group =>   1
Atom  11C    basis set group =>   1
Atom  12C    basis set group =>   1
Atom  13C    basis set group =>   1
Atom  14C    basis set group =>   1
Atom  15H    basis set group =>   2
Atom  16H    basis set group =>   2
Atom  17H    basis set group =>   2
Atom  18H    basis set group =>   2
Atom  19H    basis set group =>   2
Atom  20H    basis set group =>   2
Atom  21H    basis set group =>   2
Atom  22H    basis set group =>   2
Atom  23H    basis set group =>   2
Atom  24H    basis set group =>   2
Atom  25H    basis set group =>   2
Atom  26H    basis set group =>   2
Atom  27H    basis set group =>   2
Atom  28H    basis set group =>   2
Atom  29H    basis set group =>   2
Atom  30H    basis set group =>   2
Atom  31H    basis set group =>   2
Atom  32H    basis set group =>   2
Atom  33H    basis set group =>   2
Atom  34H    basis set group =>   2
Atom  35H    basis set group =>   2
Atom  36H    basis set group =>   2
Atom  37H    basis set group =>   2
Atom  38H    basis set group =>   2
---------------------------------
AUXILIARY/J BASIS SET INFORMATION
---------------------------------
There are 2 groups of distinct atoms

 Group   1 Type C   : 12s5p4d2f1g contracted to 6s4p3d1f1g pattern {711111/2111/211/2/1}
 Group   2 Type H   : 5s2p1d contracted to 3s1p1d pattern {311/2/1}

Atom   0C    basis set group =>   1
Atom   1C    basis set group =>   1
Atom   2C    basis set group =>   1
Atom   3C    basis set group =>   1
Atom   4C    basis set group =>   1
Atom   5C    basis set group =>   1
Atom   6C    basis set group =>   1
Atom   7C    basis set group =>   1
Atom   8C    basis set group =>   1
Atom   9C    basis set group =>   1
Atom  10C    basis set group =>   1
Atom  11C    basis set group =>   1
Atom  12C    basis set group =>   1
Atom  13C    basis set group =>   1
Atom  14C    basis set group =>   1
Atom  15H    basis set group =>   2
Atom  16H    basis set group =>   2
Atom  17H    basis set group =>   2
Atom  18H    basis set group =>   2
Atom  19H    basis set group =>   2
Atom  20H    basis set group =>   2
Atom  21H    basis set group =>   2
Atom  22H    basis set group =>   2
Atom  23H    basis set group =>   2
Atom  24H    basis set group =>   2
Atom  25H    basis set group =>   2
Atom  26H    basis set group =>   2
Atom  27H    basis set group =>   2
Atom  28H    basis set group =>   2
Atom  29H    basis set group =>   2
Atom  30H    basis set group =>   2
Atom  31H    basis set group =>   2
Atom  32H    basis set group =>   2
Atom  33H    basis set group =>   2
Atom  34H    basis set group =>   2
Atom  35H    basis set group =>   2
Atom  36H    basis set group =>   2
Atom  37H    basis set group =>   2
Atom  38H    basis set group =>   2
-------------------------
ECP PARAMETER INFORMATION
-------------------------

 Group 1, Type C  ECP vDZP-ECP (replacing 2 core electrons, lmax=3)

Atom   0C    ECP group =>   1
Atom   1C    ECP group =>   1
Atom   2C    ECP group =>   1
Atom   3C    ECP group =>   1
Atom   4C    ECP group =>   1
Atom   5C    ECP group =>   1
Atom   6C    ECP group =>   1
Atom   7C    ECP group =>   1
Atom   8C    ECP group =>   1
Atom   9C    ECP group =>   1
Atom  10C    ECP group =>   1
Atom  11C    ECP group =>   1
Atom  12C    ECP group =>   1
Atom  13C    ECP group =>   1
Atom  14C    ECP group =>   1



           ************************************************************
           *        Program running with 40 parallel MPI-processes    *
           *              working on a common directory               *
           ************************************************************
------------------------------------------------------------------------------
                             ORCA STARTUP CALCULATIONS
                           -- RI-GTO INTEGRALS CHOSEN --
------------------------------------------------------------------------------
------------------------------------------------------------------------------
                   ___                                                        
                  /   \      - P O W E R E D   B Y -                         
                 /     \                                                     
                 |  |  |   _    _      __       _____    __    __             
                 |  |  |  | |  | |    /  \     |  _  \  |  |  /  |          
                  \  \/   | |  | |   /    \    | | | |  |  | /  /          
                 / \  \   | |__| |  /  /\  \   | |_| |  |  |/  /          
                |  |  |   |  __  | /  /__\  \  |    /   |      \           
                |  |  |   | |  | | |   __   |  |    \   |  |\   \          
                \     /   | |  | | |  |  |  |  | |\  \  |  | \   \       
                 \___/    |_|  |_| |__|  |__|  |_| \__\ |__|  \__/        
                                                                              
                      - O R C A' S   B I G   F R I E N D -                    
                                      &                                       
                       - I N T E G R A L  F E E D E R -                       
                                                                              
 v1 FN, 2020, v2 2021, v3 2022-2024                                           
------------------------------------------------------------------------------


----------------------
SHARK INTEGRAL PACKAGE
----------------------

Number of atoms                             ...     39
Number of basis functions                   ...    315
Number of shells                            ...    147
Maximum angular momentum                    ...      2
Integral batch strategy                     ... SHARK/LIBINT Hybrid
RI-J (if used) integral strategy            ... SPLIT-RIJ (Revised 2003 algorithm where possible)
Printlevel                                  ...      1
Contraction scheme used                     ... SEGMENTED contraction
Prescreening option                         ... SCHWARTZ
   Thresh                                   ... 2.500e-11
   Tcut                                     ... 2.500e-12
   Tpresel                                  ... 2.500e-12 
Coulomb Range Separation                    ... NOT USED
Exchange Range Separation                   ... Long Range
   Mu parameter                             ... 3.000e-01
   Scaling (regular/separated)              ... 1.670e-01 8.330e-01
Multipole approximations                    ... NOT USED
Finite Nucleus Model                        ... NOT USED
CABS basis                                  ... NOT available
Auxiliary Coulomb fitting basis             ... AVAILABLE
   # of basis functions in Aux-J            ...    999
   # of shells in Aux-J                     ...    345
   Maximum angular momentum in Aux-J        ...      4
Auxiliary J/K fitting basis                 ... NOT available
Auxiliary Correlation fitting basis         ... NOT available
Auxiliary 'external' fitting basis          ... NOT available

Checking pre-screening integrals            ... done (  0.0 sec) Dimension = 147
Check shell pair data                       ... done (  0.0 sec)
Shell pair information
Shell pair cut-off parameter TPreSel        ...   2.5e-12
Total number of shell pairs                 ...     10878
Shell pairs after pre-screening             ...     10817
Total number of primitive shell pairs       ...    102036
Primitive shell pairs kept                  ...     78907
          la=0 lb=0:   3073 shell pairs
          la=1 lb=0:   4186 shell pairs
          la=1 lb=1:   1458 shell pairs
          la=2 lb=0:   1170 shell pairs
          la=2 lb=1:    810 shell pairs
          la=2 lb=2:    120 shell pairs

Calculating one electron integrals          ... done (  0.0 sec)
Calculating ECP integrals                   ... done (  0.2 sec)
Calculating RI/J V-Matrix + Cholesky decomp.... done (  0.1 sec)
Calculating Nuclear repulsion               ... done (  0.0 sec) ENN=    583.080513343537 Eh

Diagonalization of the overlap matrix:
Smallest eigenvalue                        ... 9.431e-04
Time for diagonalization                   ...    0.014 sec
Threshold for overlap eigenvalues          ... 1.000e-07
Number of eigenvalues below threshold      ... 0
Time for construction of square roots      ...    0.008 sec
Total time needed                          ...    0.025 sec

-------------------
DFT GRID GENERATION
-------------------

General Integration Accuracy     IntAcc      ... 4.388
Radial Grid Type                 RadialGrid  ... OptM3 with GC (2021)
Angular Grid (max. ang.)         AngularGrid ... 4 (Lebedev-302)
Angular grid pruning method      GridPruning ... 4 (adaptive)
Weight generation scheme         WeightScheme... mBecke (2022)
Basis function cutoff            BFCut       ... 1.0000e-11
Integration weight cutoff        WCut        ... 1.0000e-14
Partially contracted basis set               ... off
Rotationally invariant grid construction     ... off
Angular grids for H and He will be reduced by one unit

Total number of grid points                  ...   164354
Total number of batches                      ...     2585
Average number of points per batch           ...       63
Average number of grid points per atom       ...     4214

--------------------
COSX GRID GENERATION
--------------------

GRIDX 1
-------
General Integration Accuracy     IntAcc      ... 3.816
Radial Grid Type                 RadialGrid  ... OptM3 with GC (2021)
Angular Grid (max. ang.)         AngularGrid ... 1 (Lebedev-50)
Angular grid pruning method      GridPruning ... 4 (adaptive)
Weight generation scheme         WeightScheme... mBecke (2022)
Basis function cutoff            BFCut       ... 1.0000e-11
Integration weight cutoff        WCut        ... 1.0000e-14
Partially contracted basis set               ... on
Rotationally invariant grid construction     ... off
Angular grids for H and He will be reduced by one unit

Total number of grid points                  ...    20963
Total number of batches                      ...      191
Average number of points per batch           ...      109
Average number of grid points per atom       ...      538
UseSFitting                                  ... on

GRIDX 2
-------
General Integration Accuracy     IntAcc      ... 4.020
Radial Grid Type                 RadialGrid  ... OptM3 with GC (2021)
Angular Grid (max. ang.)         AngularGrid ... 2 (Lebedev-110)
Angular grid pruning method      GridPruning ... 4 (adaptive)
Weight generation scheme         WeightScheme... mBecke (2022)
Basis function cutoff            BFCut       ... 1.0000e-11
Integration weight cutoff        WCut        ... 1.0000e-14
Partially contracted basis set               ... on
Rotationally invariant grid construction     ... off
Angular grids for H and He will be reduced by one unit

Total number of grid points                  ...    43289
Total number of batches                      ...      358
Average number of points per batch           ...      120
Average number of grid points per atom       ...     1110
UseSFitting                                  ... on

GRIDX 3
-------
General Integration Accuracy     IntAcc      ... 4.338
Radial Grid Type                 RadialGrid  ... OptM3 with GC (2021)
Angular Grid (max. ang.)         AngularGrid ... 3 (Lebedev-194)
Angular grid pruning method      GridPruning ... 4 (adaptive)
Weight generation scheme         WeightScheme... mBecke (2022)
Basis function cutoff            BFCut       ... 1.0000e-11
Integration weight cutoff        WCut        ... 1.0000e-14
Partially contracted basis set               ... on
Rotationally invariant grid construction     ... off
Angular grids for H and He will be reduced by one unit

Total number of grid points                  ...    93900
Total number of batches                      ...      755
Average number of points per batch           ...      124
Average number of grid points per atom       ...     2408
UseSFitting                                  ... on
Initializing property integral containers    ... done (  0.0 sec)

SHARK setup successfully completed in   5.3 seconds

Maximum memory used throughout the entire STARTUP-calculation: 52.0 MB


           ************************************************************
           *        Program running with 40 parallel MPI-processes    *
           *              working on a common directory               *
           ************************************************************
-------------------------------------------------------------------------------
                                 ORCA GUESS
                   Start orbitals & Density for SCF / CASSCF
-------------------------------------------------------------------------------

------------
SCF SETTINGS
------------
Hamiltonian:
 Density Functional     Method          .... DFT(GTOs)
 Exchange Functional    Exchange        .... WB97X-V
 Correlation Functional Correlation     .... WB97X-V
 Gradients option       PostSCFGGA      .... off
 Hybrid DFT is turned on
   Fraction HF Exchange ScalHFX         ....  0.167000
   Scaling of DF-GGA-X  ScalDFX         ....  0.000000
   Scaling of DF-GGA-C  ScalDFC         ....  1.000000
   Scaling of DF-LDA-C  ScalLDAC        ....  1.000000
   Perturbative correction              ....  0.000000
 Long-range corrected/Screened/Range-Separated Hybrid DFT is turned on
   Amount of maximum screened exact exchange              ....  0.833000
   Range separation parameter mu (erf(mu*r12)/r12)        ....  0.300000
   NL short-range parameter             ....  6.000000
   NL long-range parameter              ....  0.010000
 RI-approximation to the Coulomb term is turned on
   Number of AuxJ basis functions       .... 999
   RIJ-COSX (HFX calculated with COS-X)).... on


General Settings:
 Integral files         IntName         .... ./output/beta_bourbonene/beta_bourbonene
 Hartree-Fock type      HFTyp           .... RHF
 Total Charge           Charge          ....    0
 Multiplicity           Mult            ....    1
 Number of Electrons    NEL             ....   84
 Basis Dimension        Dim             ....  315
 Nuclear Repulsion      ENuc            ....    583.0805133435 Eh

Convergence Acceleration:
 AO-DIIS                CNVDIIS         .... on
   Start iteration      DIISMaxIt       ....    12
   Startup error        DIISStart       ....  0.200000
   # of expansion vecs  DIISMaxEq       ....     5
   Bias factor          DIISBfac        ....   1.050
   Max. coefficient     DIISMaxC        ....  10.000
 MO-DIIS                CNVKDIIS        .... off
 Trust-Rad. Augm. Hess. CNVTRAH         .... auto
   Auto Start mean grad. ratio tolernc. ....  1.125000
   Auto Start start iteration           ....    50
   Auto Start num. interpolation iter.  ....    10
   Max. Number of Micro iterations      ....    24
   Max. Number of Macro iterations      .... Maxiter - #DIIS iter
   Number of Davidson start vectors     ....     2
   Converg. threshold    (grad. norm)   ....   1.000e-05
   Grad. Scal. Fac. for Micro threshold ....   0.100
   Minimum threshold for Micro iter.    ....   1.000e-02
   NR start threshold (gradient norm)   ....   1.000e-04
   Initial trust radius                 ....   0.400
   Minimum AH scaling param. (alpha)    ....   1.000
   Maximum AH scaling param. (alpha)    .... 1000.000
   Quad. conv. algorithm                .... NR
   White noise on init. David. guess    .... on
   Maximum white noise                  ....   0.010
   Pseudo random numbers                .... off
   Inactive MOs                         .... canonical
   Orbital update algorithm             .... Taylor
   Preconditioner                       .... Diag
   Full preconditioner red. dimension   ....   250
 SOSCF                  CNVSOSCF        .... on
   Start iteration      SOSCFMaxIt      ....   150
   Startup grad/error   SOSCFStart      ....  0.003300
   Hessian update       SOSCFHessUp     .... L-BFGS
 Level Shifting         CNVShift        .... on
   Level shift para.    LevelShift      ....    0.2500
   Turn off err/grad.   ShiftErr        ....    0.0010
 Zerner damping         CNVZerner       .... off
 Static damping         CNVDamp         .... on
   Fraction old density DampFac         ....    0.7000
   Max. Damping (<1)    DampMax         ....    0.9800
   Min. Damping (>=0)   DampMin         ....    0.0000
   Turn off err/grad.   DampErr         ....    0.1000

SCF Procedure:
 Maximum # iterations   MaxIter         ....   125
 SCF integral mode      SCFMode         .... Direct
   Integral package                     .... SHARK and LIBINT hybrid scheme
 Reset frequency        DirectResetFreq ....    20
 Integral Threshold     Thresh          ....  2.500e-11 Eh
 Primitive CutOff       TCut            ....  2.500e-12 Eh

Convergence Tolerance:
 Convergence Check Mode ConvCheckMode   .... Total+1el-Energy
 Convergence forced     ConvForced      .... 0
 Energy Change          TolE            ....  1.000e-08 Eh
 1-El. energy change                    ....  1.000e-05 Eh
 Orbital Gradient       TolG            ....  1.000e-05
 Orbital Rotation angle TolX            ....  1.000e-05
 DIIS Error             TolErr          ....  5.000e-07

------------------------------
INITIAL GUESS: MODEL POTENTIAL
------------------------------
Loading Hartree-Fock densities                     ... done
Atomic calculation to generate a density for atom 0 (C  with ECP)
  Multiplicity assumed   :    1
  Atomic configuration   : 1s2 2s2 2p2 
  Number of open shells  : 1
  Command: /home/aspe232/Project/Software/ORCA/6_0_1/build/orca ./output/beta_bourbonene/beta_bourbonene_atom6.inp "" > ./output/beta_bourbonene/beta_bourbonene_atom6.out
Returned from the atomic calculation with res=0
Calculating cut-offs                               ... done
Initializing the effective Hamiltonian             ... done
Setting up the integral package (SHARK)            ... done
Starting the Coulomb interaction                   ... done (   0.1 sec)
Making the grid                                    ... done (   1.1 sec)
Mapping shells                                     ... done
Starting the XC term evaluation                    ... done (   0.1 sec)
  promolecular density results
     # of electrons  =    113.998072552
     EX              =    -55.441293810
     EC              =     -4.578864040
     EX+EC           =    -60.020157850
Transforming the Hamiltonian                       ... done (   0.0 sec)
Diagonalizing the Hamiltonian                      ... done (   0.0 sec)
Back transforming the eigenvectors                 ... done (   0.0 sec)
Now organizing SCF variables                       ... done
                      ------------------
                      INITIAL GUESS DONE (   2.2 sec)
                      ------------------
             **** ENERGY FILE WAS UPDATED (./output/beta_bourbonene/beta_bourbonene.en.tmp) ****
Finished Guess after   3.2 sec
Maximum memory used throughout the entire GUESS-calculation: 34.8 MB


           ************************************************************
           *        Program running with 40 parallel MPI-processes    *
           *              working on a common directory               *
           ************************************************************

-------------------------------------------------------------------------------------------
                                      ORCA LEAN-SCF
                              memory conserving SCF solver
-------------------------------------------------------------------------------------------

----------------------------------------D-I-I-S--------------------------------------------
Iteration    Energy (Eh)           Delta-E    RMSDP     MaxDP     DIISErr   Damp  Time(sec)
-------------------------------------------------------------------------------------------
               ***  Starting incremental Fock matrix formation  ***
    1    -99.1674678398754850     0.00e+00  3.55e-03  7.86e-02  1.92e-01  0.700   8.7
    2    -99.4524735431224371    -2.85e-01  2.58e-03  5.79e-02  1.15e-01  0.700   6.4
                               ***Turning on AO-DIIS***
    3    -99.5977731165106661    -1.45e-01  1.36e-03  3.31e-02  6.38e-02  0.700   6.0
    4    -99.6832037108561053    -8.54e-02  2.96e-03  6.99e-02  3.88e-02  0.000   6.0
    5    -99.8629199370059268    -1.80e-01  2.35e-04  8.15e-03  7.40e-03  0.000   6.6
                              *** Initializing SOSCF ***
---------------------------------------S-O-S-C-F--------------------------------------
Iteration    Energy (Eh)           Delta-E    RMSDP     MaxDP     MaxGrad    Time(sec)
--------------------------------------------------------------------------------------
    6    -99.8634657534247481    -5.46e-04  1.08e-04  2.10e-03  2.49e-03     6.0
               *** Restarting incremental Fock matrix formation ***
    7    -99.8636353916026565    -1.70e-04  6.21e-05  1.61e-03  2.07e-04     8.4
    8    -99.8636484430038536    -1.31e-05  3.75e-05  1.10e-03  3.67e-04     7.9
    9    -99.8636511482280866    -2.71e-06  1.36e-05  2.58e-04  8.87e-05     7.4
   10    -99.8636516732183281    -5.25e-07  2.54e-06  7.18e-05  2.35e-05     7.2
   11    -99.8636516678373027     5.38e-09  8.18e-07  2.30e-05  8.60e-06     6.6
                 **** Energy Check signals convergence ****

               *****************************************************
               *                     SUCCESS                       *
               *           SCF CONVERGED AFTER  11 CYCLES          *
               *****************************************************

Recomputing exchange energy using gridx3       ... done (    9.904 sec)
Old exchange energy                            :    -15.915108683 Eh
New exchange energy                            :    -15.915123983 Eh
Exchange energy change after final integration :     -0.000015300 Eh
Total energy after final integration           :    -99.863666968 Eh
             **** ENERGY FILE WAS UPDATED (./output/beta_bourbonene/beta_bourbonene.en.tmp) ****

----------------
TOTAL SCF ENERGY
----------------

Total Energy       :        -99.86366696783988 Eh           -2717.42853 eV

Components:
Nuclear Repulsion  :        583.08051334353661 Eh           15866.42740 eV
Electronic Energy  :       -682.94416501137391 Eh          -18583.85551 eV
One Electron Energy:      -1304.96812408455276 Eh          -35509.98795 eV
Two Electron Energy:        622.02395907317884 Eh           16926.13243 eV

Virial components:
Potential Energy   :       -178.12437845139925 Eh           -4847.01075 eV
Kinetic Energy     :         78.26071148355938 Eh            2129.58223 eV
Virial Ratio       :          2.27603832210008

DFT components:
N(Alpha)           :       42.000019683795 electrons
N(Beta)            :       42.000019683795 electrons
N(Total)           :       84.000039367590 electrons
E(X)               :      -16.155111506732 Eh       
E(C)               :       -3.151988237282 Eh       
E(XC)              :      -19.307099744014 Eh       

---------------
SCF CONVERGENCE
---------------

  Last Energy change         ...   -5.3810e-09  Tolerance :   1.0000e-08
  Last MAX-Density change    ...    2.2984e-05  Tolerance :   1.0000e-07
  Last RMS-Density change    ...    8.1806e-07  Tolerance :   5.0000e-09
  Last DIIS Error            ...    2.4875e-03  Tolerance :   5.0000e-07
  Last Orbital Gradient      ...    8.5959e-06  Tolerance :   1.0000e-05
  Last Orbital Rotation      ...    2.5331e-05  Tolerance :   1.0000e-05


----------------
ORBITAL ENERGIES
----------------

  NO   OCC          E(Eh)            E(eV) 
   0   2.0000      -1.032153       -28.0863 
   1   2.0000      -0.968343       -26.3499 
   2   2.0000      -0.932815       -25.3832 
   3   2.0000      -0.889998       -24.2181 
   4   2.0000      -0.879357       -23.9285 
   5   2.0000      -0.856701       -23.3120 
   6   2.0000      -0.821362       -22.3504 
   7   2.0000      -0.807146       -21.9636 
   8   2.0000      -0.771995       -21.0070 
   9   2.0000      -0.758500       -20.6398 
  10   2.0000      -0.712632       -19.3917 
  11   2.0000      -0.707425       -19.2500 
  12   2.0000      -0.672715       -18.3055 
  13   2.0000      -0.645978       -17.5779 
  14   2.0000      -0.619457       -16.8563 
  15   2.0000      -0.604803       -16.4575 
  16   2.0000      -0.590665       -16.0728 
  17   2.0000      -0.573493       -15.6055 
  18   2.0000      -0.562066       -15.2946 
  19   2.0000      -0.558885       -15.2080 
  20   2.0000      -0.545432       -14.8420 
  21   2.0000      -0.530211       -14.4278 
  22   2.0000      -0.526125       -14.3166 
  23   2.0000      -0.516989       -14.0680 
  24   2.0000      -0.511772       -13.9260 
  25   2.0000      -0.493161       -13.4196 
  26   2.0000      -0.490444       -13.3456 
  27   2.0000      -0.487499       -13.2655 
  28   2.0000      -0.474949       -12.9240 
  29   2.0000      -0.463164       -12.6033 
  30   2.0000      -0.452415       -12.3108 
  31   2.0000      -0.447495       -12.1770 
  32   2.0000      -0.442763       -12.0482 
  33   2.0000      -0.440342       -11.9823 
  34   2.0000      -0.429440       -11.6856 
  35   2.0000      -0.416788       -11.3414 
  36   2.0000      -0.410761       -11.1774 
  37   2.0000      -0.406393       -11.0585 
  38   2.0000      -0.400873       -10.9083 
  39   2.0000      -0.377989       -10.2856 
  40   2.0000      -0.372430       -10.1343 
  41   2.0000      -0.332110        -9.0372 
  42   0.0000       0.069824         1.9000 
  43   0.0000       0.086450         2.3524 
  44   0.0000       0.093649         2.5483 
  45   0.0000       0.095155         2.5893 
  46   0.0000       0.101107         2.7512 
  47   0.0000       0.113772         3.0959 
  48   0.0000       0.116285         3.1643 
  49   0.0000       0.122568         3.3353 
  50   0.0000       0.127039         3.4569 
  51   0.0000       0.131770         3.5856 
  52   0.0000       0.141484         3.8500 
*Only the first 10 virtual orbitals were printed.

                    ********************************
                    * MULLIKEN POPULATION ANALYSIS *
                    ********************************

-----------------------
MULLIKEN ATOMIC CHARGES
-----------------------
   0 C :   -0.057875
   1 C :   -0.084731
   2 C :   -0.068500
   3 C :   -0.070937
   4 C :   -0.053845
   5 C :   -0.014535
   6 C :   -0.157882
   7 C :   -0.008684
   8 C :   -0.065089
   9 C :   -0.028744
  10 C :   -0.060749
  11 C :   -0.075165
  12 C :   -0.037202
  13 C :   -0.040857
  14 C :   -0.037206
  15 H :    0.017769
  16 H :    0.035924
  17 H :    0.034154
  18 H :    0.035142
  19 H :    0.034515
  20 H :    0.032679
  21 H :    0.033103
  22 H :    0.035525
  23 H :    0.049516
  24 H :    0.030066
  25 H :    0.026963
  26 H :    0.041938
  27 H :    0.042214
  28 H :    0.050779
  29 H :    0.031516
  30 H :    0.039650
  31 H :    0.040385
  32 H :    0.050551
  33 H :    0.059863
  34 H :    0.017116
  35 H :    0.021402
  36 H :    0.039989
  37 H :    0.023801
  38 H :    0.037438
Sum of atomic charges:    0.0000000

--------------------------------
MULLIKEN REDUCED ORBITAL CHARGES
--------------------------------
  0 C s       :     0.959753  s :     0.959753
      pz      :     1.029067  p :     3.024250
      px      :     1.032018
      py      :     0.963165
      dz2     :     0.021799  d :     0.073872
      dxz     :     0.005402
      dyz     :     0.012739
      dx2y2   :     0.016305
      dxy     :     0.017627

  1 C s       :     1.050844  s :     1.050844
      pz      :     1.028178  p :     2.910550
      px      :     0.945959
      py      :     0.936413
      dz2     :     0.032845  d :     0.123338
      dxz     :     0.015696
      dyz     :     0.016690
      dx2y2   :     0.030286
      dxy     :     0.027821

  2 C s       :     0.963220  s :     0.963220
      pz      :     1.032608  p :     3.030819
      px      :     0.959631
      py      :     1.038580
      dz2     :     0.018664  d :     0.074461
      dxz     :     0.012775
      dyz     :     0.009174
      dx2y2   :     0.014128
      dxy     :     0.019719

  3 C s       :     1.024709  s :     1.024709
      pz      :     1.036302  p :     2.924464
      px      :     0.953388
      py      :     0.934774
      dz2     :     0.032316  d :     0.121764
      dxz     :     0.014405
      dyz     :     0.015550
      dx2y2   :     0.032103
      dxy     :     0.027390

  4 C s       :     0.994152  s :     0.994152
      pz      :     1.025890  p :     2.960828
      px      :     0.994676
      py      :     0.940261
      dz2     :     0.024585  d :     0.098865
      dxz     :     0.014663
      dyz     :     0.013972
      dx2y2   :     0.022426
      dxy     :     0.023220

  5 C s       :     0.982324  s :     0.982324
      pz      :     1.032615  p :     2.934865
      px      :     0.913187
      py      :     0.989062
      dz2     :     0.020019  d :     0.097346
      dxz     :     0.013237
      dyz     :     0.018918
      dx2y2   :     0.023307
      dxy     :     0.021865

  6 C s       :     1.085093  s :     1.085093
      pz      :     0.978266  p :     2.929549
      px      :     0.982582
      py      :     0.968701
      dz2     :     0.033839  d :     0.143240
      dxz     :     0.029065
      dyz     :     0.023450
      dx2y2   :     0.025925
      dxy     :     0.030961

  7 C s       :     1.031686  s :     1.031686
      pz      :     0.940275  p :     2.859961
      px      :     0.951047
      py      :     0.968639
      dz2     :     0.023848  d :     0.117037
      dxz     :     0.023020
      dyz     :     0.024074
      dx2y2   :     0.022662
      dxy     :     0.023434

  8 C s       :     1.011458  s :     1.011458
      pz      :     0.990809  p :     2.934100
      px      :     0.984398
      py      :     0.958893
      dz2     :     0.023460  d :     0.119530
      dxz     :     0.027302
      dyz     :     0.021980
      dx2y2   :     0.022052
      dxy     :     0.024735

  9 C s       :     1.038620  s :     1.038620
      pz      :     0.946859  p :     2.873107
      px      :     0.956055
      py      :     0.970193
      dz2     :     0.022778  d :     0.117017
      dxz     :     0.024184
      dyz     :     0.023359
      dx2y2   :     0.022566
      dxy     :     0.024130

 10 C s       :     0.991382  s :     0.991382
      pz      :     1.054043  p :     2.973892
      px      :     0.965016
      py      :     0.954832
      dz2     :     0.016448  d :     0.095475
      dxz     :     0.015554
      dyz     :     0.018105
      dx2y2   :     0.021805
      dxy     :     0.023563

 11 C s       :     0.992713  s :     0.992713
      pz      :     1.046946  p :     2.985206
      px      :     0.990680
      py      :     0.947581
      dz2     :     0.013574  d :     0.097246
      dxz     :     0.023312
      dyz     :     0.016580
      dx2y2   :     0.021350
      dxy     :     0.022430

 12 C s       :     1.055842  s :     1.055842
      pz      :     0.940101  p :     2.856973
      px      :     0.914283
      py      :     1.002589
      dz2     :     0.006666  d :     0.124388
      dxz     :     0.015763
      dyz     :     0.024727
      dx2y2   :     0.035267
      dxy     :     0.041965

 13 C s       :     0.978009  s :     0.978009
      pz      :     1.020127  p :     2.998667
      px      :     0.986133
      py      :     0.992408
      dz2     :     0.003963  d :     0.064180
      dxz     :     0.000839
      dyz     :     0.013759
      dx2y2   :     0.014438
      dxy     :     0.031182

 14 C s       :     0.944852  s :     0.944852
      pz      :     0.995734  p :     3.018074
      px      :     0.991962
      py      :     1.030378
      dz2     :     0.023212  d :     0.074280
      dxz     :     0.015402
      dyz     :     0.003711
      dx2y2   :     0.008214
      dxy     :     0.023741

 15 H s       :     0.936678  s :     0.936678
      pz      :     0.010798  p :     0.045553
      px      :     0.023550
      py      :     0.011205

 16 H s       :     0.920618  s :     0.920618
      pz      :     0.012406  p :     0.043457
      px      :     0.014492
      py      :     0.016559

 17 H s       :     0.922764  s :     0.922764
      pz      :     0.023096  p :     0.043082
      px      :     0.010513
      py      :     0.009474

 18 H s       :     0.924059  s :     0.924059
      pz      :     0.022008  p :     0.040799
      px      :     0.009897
      py      :     0.008894

 19 H s       :     0.922122  s :     0.922122
      pz      :     0.011706  p :     0.043363
      px      :     0.014850
      py      :     0.016807

 20 H s       :     0.924458  s :     0.924458
      pz      :     0.022945  p :     0.042862
      px      :     0.009831
      py      :     0.010086

 21 H s       :     0.922670  s :     0.922670
      pz      :     0.012578  p :     0.044227
      px      :     0.011512
      py      :     0.020137

 22 H s       :     0.925164  s :     0.925164
      pz      :     0.022125  p :     0.039311
      px      :     0.008756
      py      :     0.008431

 23 H s       :     0.907775  s :     0.907775
      pz      :     0.012625  p :     0.042709
      px      :     0.018083
      py      :     0.012001

 24 H s       :     0.928147  s :     0.928147
      pz      :     0.022635  p :     0.041787
      px      :     0.009604
      py      :     0.009548

 25 H s       :     0.930295  s :     0.930295
      pz      :     0.021993  p :     0.042742
      px      :     0.010312
      py      :     0.010438

 26 H s       :     0.915484  s :     0.915484
      pz      :     0.014236  p :     0.042578
      px      :     0.010024
      py      :     0.018318

 27 H s       :     0.916784  s :     0.916784
      pz      :     0.013792  p :     0.041003
      px      :     0.011540
      py      :     0.015671

 28 H s       :     0.905992  s :     0.905992
      pz      :     0.016354  p :     0.043229
      px      :     0.017008
      py      :     0.009867

 29 H s       :     0.926854  s :     0.926854
      pz      :     0.014619  p :     0.041630
      px      :     0.011533
      py      :     0.015478

 30 H s       :     0.917739  s :     0.917739
      pz      :     0.020866  p :     0.042611
      px      :     0.010368
      py      :     0.011376

 31 H s       :     0.915200  s :     0.915200
      pz      :     0.015914  p :     0.044414
      px      :     0.014513
      py      :     0.013988

 32 H s       :     0.905873  s :     0.905873
      pz      :     0.018899  p :     0.043575
      px      :     0.013884
      py      :     0.010793

 33 H s       :     0.896934  s :     0.896934
      pz      :     0.018919  p :     0.043202
      px      :     0.013434
      py      :     0.010849

 34 H s       :     0.931089  s :     0.931089
      pz      :     0.015567  p :     0.051795
      px      :     0.023406
      py      :     0.012822

 35 H s       :     0.928273  s :     0.928273
      pz      :     0.015169  p :     0.050325
      px      :     0.020273
      py      :     0.014883

 36 H s       :     0.916768  s :     0.916768
      pz      :     0.009870  p :     0.043243
[...]
 81:   1477.68   0.000629    3.18  0.000133  (-0.003262 -0.008730 -0.006776)
 82:   1505.63   0.001921    9.71  0.000398  (-0.002304  0.014624 -0.013376)
 83:   1515.93   0.000819    4.14  0.000169  (-0.009831 -0.000752 -0.008446)
 84:   1517.10   0.000568    2.87  0.000117  (-0.002581 -0.008816 -0.005704)
 85:   1520.32   0.001424    7.20  0.000292  (-0.009683 -0.009220  0.010659)
 86:   1522.78   0.000680    3.44  0.000139  (-0.010046  0.004889 -0.003808)
 87:   1527.10   0.002506   12.66  0.000512  ( 0.016692 -0.013373 -0.007387)
 88:   1534.81   0.002059   10.41  0.000419  ( 0.007516 -0.012181  0.014621)
 89:   1535.62   0.001497    7.57  0.000304  ( 0.017029 -0.002978 -0.002316)
 90:   1538.17   0.000292    1.47  0.000059  ( 0.004910 -0.005796 -0.001208)
 91:   1543.52   0.002619   13.24  0.000530  ( 0.007575  0.010272  0.019147)
 92:   1790.58   0.007190   36.34  0.001253  (-0.003127 -0.030118 -0.018338)
 93:   3048.72   0.003470   17.54  0.000355  ( 0.004731 -0.001448 -0.018186)
 94:   3086.53   0.003848   19.45  0.000389  (-0.007931  0.000164  0.018059)
 95:   3090.17   0.005328   26.92  0.000538  ( 0.010290 -0.019552  0.007060)
 96:   3091.18   0.003822   19.31  0.000386  (-0.014560 -0.003683 -0.012660)
 97:   3094.20   0.008380   42.35  0.000845  (-0.022928 -0.011537  0.013649)
 98:   3097.99   0.012211   61.71  0.001230  (-0.010693 -0.020614 -0.026281)
 99:   3100.64   0.004860   24.56  0.000489  (-0.010800  0.018821 -0.004277)
100:   3109.64   0.003934   19.88  0.000395  (-0.013720  0.004564 -0.013627)
101:   3111.99   0.004266   21.56  0.000428  ( 0.017392  0.007444 -0.008359)
102:   3133.83   0.009122   46.10  0.000908  (-0.003690 -0.025581  0.015502)
103:   3140.10   0.002533   12.80  0.000252  ( 0.006091 -0.008664  0.011814)
104:   3155.41   0.004216   21.31  0.000417  ( 0.002373 -0.016472  0.011832)
105:   3170.38   0.005224   26.40  0.000514  ( 0.021617 -0.006830  0.000454)
106:   3172.43   0.000385    1.94  0.000038  (-0.001839  0.002088 -0.005488)
107:   3172.93   0.003774   19.07  0.000371  (-0.003243 -0.005079 -0.018299)
108:   3173.82   0.004252   21.49  0.000418  (-0.014809 -0.013000  0.005454)
109:   3174.15   0.004639   23.44  0.000456  ( 0.011429  0.002621 -0.017848)
110:   3178.86   0.008721   44.07  0.000856  ( 0.013250  0.009364  0.024349)
111:   3181.98   0.005475   27.67  0.000537  ( 0.010449 -0.009535 -0.018354)
112:   3194.65   0.002664   13.46  0.000260  ( 0.015364 -0.004872 -0.000681)
113:   3195.58   0.004155   21.00  0.000406  ( 0.006652  0.017781 -0.006731)
114:   3197.03   0.004025   20.34  0.000393  (-0.014583  0.013310  0.001751)
115:   3202.13   0.001703    8.61  0.000166  ( 0.000370  0.010973  0.006743)
116:   3296.80   0.001315    6.65  0.000125  ( 0.010888 -0.002439 -0.000067)

* The epsilon (eps) is given for a Dirac delta lineshape.
** The dipole moment derivative (T) already includes vibrational overlap.

The first frequency considered to be a vibration is 6
The total number of vibrations considered is 111


--------------------------
THERMOCHEMISTRY AT 298.15K
--------------------------

Temperature         ...   298.15 K
Pressure            ...     1.00 atm
Total Mass          ...   204.36 AMU
Quasi RRHO          ...     True
Cut-Off Frequency   ...     1.00 cm^-1

Throughout the following assumptions are being made:
  (1) The electronic state is orbitally nondegenerate
  (2) There are no thermally accessible electronically excited states
  (3) Hindered rotations indicated by low frequency modes are not
      treated as such but are treated as vibrations and this may
      cause some error
  (4) All equations used are the standard statistical mechanics
      equations for an ideal gas
  (5) All vibrations are strictly harmonic

freq.      58.03  E(vib)   ...       0.51 
freq.      67.97  E(vib)   ...       0.50 
freq.     100.95  E(vib)   ...       0.46 
freq.     133.51  E(vib)   ...       0.42 
freq.     167.51  E(vib)   ...       0.38 
freq.     188.35  E(vib)   ...       0.36 
freq.     215.86  E(vib)   ...       0.34 
freq.     232.64  E(vib)   ...       0.32 
freq.     237.11  E(vib)   ...       0.32 
freq.     254.16  E(vib)   ...       0.30 
freq.     276.60  E(vib)   ...       0.28 
freq.     304.33  E(vib)   ...       0.26 
freq.     328.25  E(vib)   ...       0.24 
freq.     348.46  E(vib)   ...       0.23 
freq.     375.45  E(vib)   ...       0.21 
freq.     393.95  E(vib)   ...       0.20 
freq.     411.23  E(vib)   ...       0.19 
freq.     457.98  E(vib)   ...       0.16 
freq.     497.60  E(vib)   ...       0.14 
freq.     511.20  E(vib)   ...       0.14 
freq.     560.29  E(vib)   ...       0.11 
freq.     599.95  E(vib)   ...       0.10 
freq.     638.60  E(vib)   ...       0.09 
freq.     674.97  E(vib)   ...       0.08 
freq.     705.08  E(vib)   ...       0.07 
freq.     743.56  E(vib)   ...       0.06 
freq.     836.16  E(vib)   ...       0.04 
freq.     850.61  E(vib)   ...       0.04 
freq.     867.89  E(vib)   ...       0.04 
freq.     892.62  E(vib)   ...       0.03 
freq.     907.80  E(vib)   ...       0.03 
freq.     920.74  E(vib)   ...       0.03 
freq.     928.77  E(vib)   ...       0.03 
freq.     936.20  E(vib)   ...       0.03 
freq.     943.72  E(vib)   ...       0.03 
freq.     951.70  E(vib)   ...       0.03 
freq.     964.24  E(vib)   ...       0.03 
freq.     975.59  E(vib)   ...       0.03 
freq.     992.64  E(vib)   ...       0.02 
freq.     995.45  E(vib)   ...       0.02 
freq.    1010.77  E(vib)   ...       0.02 
freq.    1023.20  E(vib)   ...       0.02 
freq.    1032.09  E(vib)   ...       0.02 
freq.    1059.36  E(vib)   ...       0.02 
freq.    1075.84  E(vib)   ...       0.02 
freq.    1100.72  E(vib)   ...       0.02 
freq.    1118.01  E(vib)   ...       0.01 
freq.    1128.84  E(vib)   ...       0.01 
freq.    1150.96  E(vib)   ...       0.01 
freq.    1179.66  E(vib)   ...       0.01 
freq.    1191.23  E(vib)   ...       0.01 
freq.    1209.39  E(vib)   ...       0.01 
freq.    1223.20  E(vib)   ...       0.01 
freq.    1232.39  E(vib)   ...       0.01 
freq.    1243.56  E(vib)   ...       0.01 
freq.    1246.43  E(vib)   ...       0.01 
freq.    1260.78  E(vib)   ...       0.01 
freq.    1288.19  E(vib)   ...       0.01 
freq.    1293.07  E(vib)   ...       0.01 
freq.    1296.35  E(vib)   ...       0.01 
freq.    1312.13  E(vib)   ...       0.01 
freq.    1319.25  E(vib)   ...       0.01 
freq.    1335.74  E(vib)   ...       0.01 
freq.    1346.55  E(vib)   ...       0.01 
freq.    1361.44  E(vib)   ...       0.01 
freq.    1371.42  E(vib)   ...       0.01 
freq.    1374.32  E(vib)   ...       0.01 
freq.    1385.17  E(vib)   ...       0.00 
freq.    1391.66  E(vib)   ...       0.00 
freq.    1393.72  E(vib)   ...       0.00 
freq.    1409.34  E(vib)   ...       0.00 
freq.    1438.86  E(vib)   ...       0.00 
freq.    1444.74  E(vib)   ...       0.00 
freq.    1448.71  E(vib)   ...       0.00 
freq.    1452.45  E(vib)   ...       0.00 
freq.    1477.68  E(vib)   ...       0.00 
freq.    1505.63  E(vib)   ...       0.00 
freq.    1515.93  E(vib)   ...       0.00 
freq.    1517.10  E(vib)   ...       0.00 
freq.    1520.32  E(vib)   ...       0.00 
freq.    1522.78  E(vib)   ...       0.00 
freq.    1527.10  E(vib)   ...       0.00 
freq.    1534.81  E(vib)   ...       0.00 
freq.    1535.62  E(vib)   ...       0.00 
freq.    1538.17  E(vib)   ...       0.00 
freq.    1543.52  E(vib)   ...       0.00 
freq.    1790.58  E(vib)   ...       0.00 
freq.    3048.72  E(vib)   ...       0.00 
freq.    3086.53  E(vib)   ...       0.00 
freq.    3090.17  E(vib)   ...       0.00 
freq.    3091.18  E(vib)   ...       0.00 
freq.    3094.20  E(vib)   ...       0.00 
freq.    3097.99  E(vib)   ...       0.00 
freq.    3100.64  E(vib)   ...       0.00 
freq.    3109.64  E(vib)   ...       0.00 
freq.    3111.99  E(vib)   ...       0.00 
freq.    3133.83  E(vib)   ...       0.00 
freq.    3140.10  E(vib)   ...       0.00 
freq.    3155.41  E(vib)   ...       0.00 
freq.    3170.38  E(vib)   ...       0.00 
freq.    3172.43  E(vib)   ...       0.00 
freq.    3172.93  E(vib)   ...       0.00 
freq.    3173.82  E(vib)   ...       0.00 
freq.    3174.15  E(vib)   ...       0.00 
freq.    3178.86  E(vib)   ...       0.00 
freq.    3181.98  E(vib)   ...       0.00 
freq.    3194.65  E(vib)   ...       0.00 
freq.    3195.58  E(vib)   ...       0.00 
freq.    3197.03  E(vib)   ...       0.00 
freq.    3202.13  E(vib)   ...       0.00 
freq.    3296.80  E(vib)   ...       0.00 

------------
INNER ENERGY
------------

The inner energy is: U= E(el) + E(ZPE) + E(vib) + E(rot) + E(trans)
    E(el)   - is the total energy from the electronic structure calculation
              = E(kin-el) + E(nuc-el) + E(el-el) + E(nuc-nuc)
    E(ZPE)  - the the zero temperature vibrational energy from the frequency calculation
    E(vib)  - the the finite temperature correction to E(ZPE) due to population
              of excited vibrational states
    E(rot)  - is the rotational thermal energy
    E(trans)- is the translational thermal energy

Summary of contributions to the inner energy U:
Electronic energy                ...    -99.93524862 Eh
Zero point energy                ...      0.36609612 Eh     229.73 kcal/mol
Thermal vibrational correction   ...      0.01159532 Eh       7.28 kcal/mol
Thermal rotational correction    ...      0.00141627 Eh       0.89 kcal/mol
Thermal translational correction ...      0.00141627 Eh       0.89 kcal/mol
-----------------------------------------------------------------------
Total thermal energy                    -99.55472463 Eh


Summary of corrections to the electronic energy:
(perhaps to be used in another calculation)
Total thermal correction                  0.01442786 Eh       9.05 kcal/mol
Non-thermal (ZPE) correction              0.36609612 Eh     229.73 kcal/mol
-----------------------------------------------------------------------
Total correction                          0.38052398 Eh     238.78 kcal/mol


--------
ENTHALPY
--------

The enthalpy is H = U + kB*T
                kB is Boltzmann's constant
Total thermal energy              ...    -99.55472463 Eh 
Thermal Enthalpy correction       ...      0.00094421 Eh       0.59 kcal/mol
-----------------------------------------------------------------------
Total Enthalpy                    ...    -99.55378042 Eh


Note: Only C1 symmetry has been detected, increase convergence thresholds 
      if your molecule has a higher symmetry. Symmetry factor of 1.0 is   
      used for the rotational entropy correction. 
 

Note: Rotational entropy computed according to Herzberg 
Infrared and Raman Spectra, Chapter V,1, Van Nostrand Reinhold, 1945 
Point Group:  C1, Symmetry Number:   1  
Rotational constants in cm-1:     0.028975     0.017599     0.012693 

Vibrational entropy computed according to the QRRHO of S. Grimme
Chem.Eur.J. 2012 18 9955 using a reference frequency of 100.0 cm-1


-------
ENTROPY
-------

The entropy contributions are T*S = T*(S(el)+S(vib)+S(rot)+S(trans))
     S(el)   - electronic entropy
     S(vib)  - vibrational entropy
     S(rot)  - rotational entropy
     S(trans)- translational entropy
The entropies will be listed as multiplied by the temperature to get
units of energy

Electronic entropy                ...      0.00000000 Eh      0.00 kcal/mol
Vibrational entropy               ...      0.01943354 Eh     12.19 kcal/mol
Rotational entropy                ...      0.01515132 Eh      9.51 kcal/mol
Translational entropy             ...      0.01988345 Eh     12.48 kcal/mol
-----------------------------------------------------------------------
Final entropy term                ...      0.05446831 Eh     34.18 kcal/mol

In case the symmetry of your molecule has not been determined correctly
or in case you have a reason to use a different symmetry number we print 
out the resulting rotational entropy values for sn=1,12:

 non-linear molecules -----------------------------------
|  sn= 1 | S(rot)=       0.01515132 Eh      9.51 kcal/mol|
|  sn= 2 | S(rot)=       0.01449687 Eh      9.10 kcal/mol|
|  sn= 3 | S(rot)=       0.01411403 Eh      8.86 kcal/mol|
|  sn= 4 | S(rot)=       0.01384241 Eh      8.69 kcal/mol|
|  sn= 5 | S(rot)=       0.01363172 Eh      8.55 kcal/mol|
|  sn= 6 | S(rot)=       0.01345958 Eh      8.45 kcal/mol|
|  sn= 7 | S(rot)=       0.01331403 Eh      8.35 kcal/mol|
|  sn= 8 | S(rot)=       0.01318795 Eh      8.28 kcal/mol|
|  sn= 9 | S(rot)=       0.01307674 Eh      8.21 kcal/mol|
|  sn=10 | S(rot)=       0.01297727 Eh      8.14 kcal/mol|
|  sn=11 | S(rot)=       0.01288728 Eh      8.09 kcal/mol|
|  sn=12 | S(rot)=       0.01280512 Eh      8.04 kcal/mol|
 linear molecules ---------------------------------------
|  Dinfh | S(rot)=       0.00944877 Eh      5.93 kcal/mol|
|  Cinfv | S(rot)=       0.01010323 Eh      6.34 kcal/mol|
 --------------------------------------------------------


-------------------
GIBBS FREE ENERGY
-------------------

The Gibbs free energy is G = H - T*S

Total enthalpy                    ...    -99.55378042 Eh 
Total entropy correction          ...     -0.05446831 Eh    -34.18 kcal/mol
-----------------------------------------------------------------------
Final Gibbs free energy         ...    -99.60824873 Eh

For completeness - the Gibbs free energy minus the electronic energy
G-E(el)                           ...      0.32699989 Eh    205.20 kcal/mol


Maximum memory used throughout the entire PROP-calculation: 241.7 MB

--------------------------------
SUGGESTED CITATIONS FOR THIS RUN
--------------------------------

Below you find a list of papers that are relevant to this ORCA run
We neither can nor want to force you to cite these papers, but we appreciate if you do
You receive ORCA, which is the product of decades of hard work by many enthusiastic individuals, for free
The only thing we kindly ask in return is that you cite our papers,
We deeply appreciate it, if you show your appreciation for ORCA by not just citing the generic ORCA reference.

Please note that relegating all ORCA citations to the supporting information does *not* help us.
SI sections are not indexed - citations you put there will not count into any citation statistics
But we need these citations in order to attract the funding resources that allow us to do what we are doing

Therefore, if you are a happy ORCA user, please consider citing a few of the papers listed below in the main body of your paper

In addition to the list printed below, the program has created the file ./output/beta_bourbonene/beta_bourbonene.bibtex that contains the list in bibtex format
You can import this file easily into all common literature databanks and citation aid programs


List of essential papers. We consider these as the minimum necessary citations

  1. Neese,F.
     Software update: the ORCA program system, version 5.0
     WIRES Comput. Molec. Sci., 2022 12(1)e1606
     doi.org/10.1002/wcms.1606
  2. Mueller,M.; Hansen,A.; Grimme,S.
     wB97X-3c: A composite range-separated hybrid DFT method with a molecule-optimized polarized valence double-zeta basis set
     J. Chem. Phys., 2023 158 014103
     doi.org/10.1063/5.0133026

List of papers to cite with high priority. The work reported in these papers was absolutely
necessary for this run to complete.
Our perspective: the developers of density functionals and basis sets usually get cited in chemistry papers
Good! But without the algorithms to do something with them, the functionals or basis sets would not do anything.
Hence, in our opinion, the algorithm design and method developments papers are equally worthy of getting cited

  1. Neese,F.
     An improvement of the resolution of the identity approximation for the formation of the Coulomb matrix
     J. Comp. Chem., 2003 24(14)1740-1747
     doi.org/10.1002/jcc.10318
  2. Neese,F.; Wennmohs,F.; Hansen,A.; Becker,U.
     Efficient, approximate and parallel Hartree-Fock and hybrid DFT calculations. A 'chain-of-spheres' algorithm for the Hartree-Fock exchange
     Chem. Phys., 2009 356(1-3)98-109
     doi.org/10.1016/j.chemphys.2008.10.036
  3. Bykov,D.; Petrenko,T.; Izsak,R.; Kossmann,S.; Becker,U.; Valeev,E.; Neese,F.
     Efficient implementation of the analytic second derivatives of Hartree-Fock and hybrid DFT energies: a detailed analysis of different approximations
     Molec. Phys., 2015 113 1961-1977
     doi.org/10.1080/00268976.2015.1025114
  4. Helmich-Paris,B.; de Souza,B.; Neese,F.; Izsák,R.
     An improved chain of spheres for exchange algorithm
     J. Chem. Phys., 2021 155 104109
     doi.org/doi: 10.1063/5.0058766.
  5. Neese,F.
     The SHARK Integral Generation and Digestion System
     J. Comp. Chem., 2022  1-16
     doi.org/10.1002/jcc.26942
  6. Caldeweyher,E.; Bannwarth,C.; Grimme,S.
     Extension of the D3 dispersion coefficient model
     J. Chem. Phys., 2017 147 034112
     doi.org/10.1063/1.4993215
  7. Caldeweyher,E.; Ehlert,S.; Hansen,A.; Neugebauer,H.; Spicher,S.; Bannwarth,C.; Grimme,S.
     A generally applicable atomic-charge dependent London dispersion correction
     J. Chem. Phys., 2019 150 154122
     doi.org/10.1063/1.5090222
  8. Caldeweyher,E.; Mewes,J.; Ehlert,S.; Grimme,S.
     Extension and evaluation of the D4 London-dispersion model for periodic systems
     Phys. Chem. Chem. Phys., 2020 22(16)8499-8512
     doi.org/10.1039/D0CP00502A
  9. Wittmann,L.; Gordiy,I.; Friede,M.; Helmich-Paris,B.; Grimme,S.; Hansen,A.; Bursch,M.
     Extension of the D3 and D4 London Dispersion Corrections to the full Actinides Series
     Phys. Chem. Chem. Phys., 2024 26(32)21379-21394
     doi.org/https://doi.org/10.1039/D4CP01514B 

List of suggested additional citations. These are papers that are important in the 'surrounding' of 
of this run, or papers that preceded the highly important papers. If you like your results we are grateful for a citation.

  1. Izsak,R.; Neese,F.
     An overlap fitted chain of spheres exchange method
     J. Chem. Phys., 2011 135 144105
     doi.org/10.1063/1.3646921
  2. Izsak,R.; Hansen,A.; Neese,F.
     The resolution of identity and chain of spheres approximations for the LPNO-CCSD singles Fock term
     Molec. Phys., 2012 110 2413-2417
     doi.org/10.1080/00268976.2012.687466
  3. Neese,F.
     The ORCA program system
     WIRES Comput. Molec. Sci., 2012 2(1)73-78
     doi.org/10.1002/wcms.81
  4. Izsak,R.; Neese,F.; Klopper,W.
     Robust fitting techniques in the chain of spheres approximation to the Fock exchange: The role of the complementary space
     J. Chem. Phys., 2013 139 
     doi.org/10.1063/1.4819264
  5. Neese,F.
     Software update: the ORCA program system, version 4.0
     WIRES Comput. Molec. Sci., 2018 8(1)1-6
     doi.org/10.1002/wcms.1327
  6. Neese,F.; Wennmohs,F.; Becker,U.; Riplinger,C.
     The ORCA quantum chemistry program package
     J. Chem. Phys., 2020 152 Art. No. L224108
     doi.org/10.1063/5.0004608

List of optional additional citations

  1. Neese,F.
     Approximate second-order SCF convergence for spin unrestricted wavefunctions
     Chem. Phys. Lett., 2000 325(1-3)93-98
     doi.org/10.1016/s0009-2614(00)00662-x

Timings for individual modules:

Sum of individual times          ...     1556.915 sec (=  25.949 min)
Startup calculation              ...       60.486 sec (=   1.008 min)   3.9 %
SCF iterations                   ...      862.063 sec (=  14.368 min)  55.4 %
Property integrals               ...      137.810 sec (=   2.297 min)   8.9 %
SCF Response                     ...       85.540 sec (=   1.426 min)   5.5 %
Property calculations            ...      223.629 sec (=   3.727 min)  14.4 %
SCF Gradient evaluation          ...      186.968 sec (=   3.116 min)  12.0 %
Geometry relaxation              ...        0.419 sec (=   0.007 min)   0.0 %
                             ****ORCA TERMINATED NORMALLY****
TOTAL RUN TIME: 0 days 0 hours 26 minutes 2 seconds 628 msec
