
                                 *****************
                                 * O   R   C   A *
                                 *****************

                                            #,                                       
                                            ###                                      
                                            ####                                     
                                            #####                                    
                                            ######                                   
                                           ########,                                 
                                     ,,################,,,,,                         
                               ,,#################################,,                 
                          ,,##########################################,,             
                       ,#########################################, ''#####,          
                    ,#############################################,,   '####,        
                  ,##################################################,,,,####,       
                ,###########''''           ''''###############################       
              ,#####''   ,,,,##########,,,,          '''####'''          '####       
            ,##' ,,,,###########################,,,                        '##       
           ' ,,###''''                  '''############,,,                           
         ,,##''                                '''############,,,,        ,,,,,,###''
      ,#''                                            '''#######################'''  
     '                                                          ''''####''''         
             ,#######,   #######,   ,#######,      ##                                
            ,#'     '#,  ##    ##  ,#'     '#,    #''#        ,####,   ,####,        
            ##       ##  ##   ,#'  ##            #'  '#       #'       #'  '#        
            ##       ##  #######   ##           ,######,      #####,   #    #        
            '#,     ,#'  ##    ##  '#,     ,#' ,#      #,     #,   #   #,  ,#        
             '#######'   ##     ##  '#######'  #'      '#     '####' # '####'        



                #########################################################
                #                        -***-                          #
                #          Department of theory and spectroscopy        #
                #                                                       #
                #                      Frank Neese                      #
                #                                                       #
                #     Directorship, Architecture, Infrastructure        #
                #                    SHARK, DRIVERS                     #
                #        Core code/Algorithms in most modules           #
                #                                                       #
                #        Max Planck Institute fuer Kohlenforschung      #
                #                Kaiser Wilhelm Platz 1                 #
                #                 D-45470 Muelheim/Ruhr                 #
                #                      Germany                          #
                #                                                       #
                #                  All rights reserved                  #
                #                        -***-                          #
                #########################################################


                         Program Version 6.0.1  -  RELEASE   -


 With contributions from (in alphabetic order):
[Max-Planck-Institut fuer Kohlenforschung]                               
  Daniel Aravena         : Magnetic Suceptibility                        
  Michael Atanasov       : Ab Initio Ligand Field Theory (pilot matlab implementation)
  Alexander A. Auer      : GIAO ZORA, VPT2 properties, NMR spectrum      
  Ute Becker             : All parallelization in ORCA, NUMFREQ, NUMCALC 
  Giovanni Bistoni       : ED, misc. LED, open-shell LED, HFLD           
  Martin Brehm           : Molecular dynamics                            
  Dmytro Bykov           : pre 5.0 version of the SCF Hessian            
  Marcos Casanova-Páez   : Triplet and SCS-CIS(D). UHF-(DLPNO)-IP/EA/STEOM-CCSD. UHF-CVS-IP/STEOM-CCSD   
  Vijay G. Chilkuri      : MRCI spin determinant printing, contributions to CSF-ICE 
  Pauline Colinet        : FMM embedding                                 
  Dipayan Datta          : RHF DLPNO-CCSD density                        
  Achintya Kumar Dutta   : EOM-CC, STEOM-CC                              
  Nicolas Foglia         : Exact transition moments, OPA infrastructure, MCD improvements    
  Dmitry Ganyushin       : Spin-Orbit,Spin-Spin,Magnetic field MRCI      
  Miquel Garcia-Rates    : C-PCM and meta-GGA Hessian, CCSD/C-PCM, Gaussian charge scheme 
  Tiago L. C. Gouveia    : GS-ROHF, GS-ROCIS                             
  Yang Guo               : DLPNO-NEVPT2, F12-NEVPT2, CIM, IAO-localization        
  Andreas Hansen         : Spin unrestricted coupled pair/coupled cluster methods 
  Ingolf Harden          : AUTO-CI MPn and infrastructure                
  Benjamin Helmich-Paris : MC-RPA, TRAH-(SCF,CASSCF), AVAS, COSX integrals, SCF dyn. polar. 
  Lee Huntington         : MR-EOM, pCC                                   
  Robert Izsak           : Overlap fitted RIJCOSX, COSX-SCS-MP3, EOM     
  Riya Kayal             : Wick's Theorem for AUTO-CI, AUTO-CI UHF-CCSDT 
  Emily Kempfer          : AUTO-CI, RHF CISDT and CCSDT                  
  Christian Kollmar      : KDIIS, OOCD, Brueckner-CCSD(T), CCSD density, CASPT2, CASPT2-K, improved NEVPT2 
  Axel Koslowski         : Symmetry handling                             
  Simone Kossmann        : meta-GGA functionals, TD-DFT gradient, OOMP2, (MP2 Hessian; deprecated post 5.0) 
  Lucas Lang             : DCDCAS                                        
  Marvin Lechner         : AUTO-CI (C++ implementation), FIC-MRCC        
  Spencer Leger          : CASSCF response                               
  Dagmar Lenk            : GEPOL surface, SMD, ORCA-2-JSON               
  Dimitrios Liakos       : Extrapolation schemes; Compound Job, initial MDCI parallelization 
  Dimitrios Manganas     : Further ROCIS development; embedding schemes. LFT, Crystal Embedding 
  Dimitrios Pantazis     : SARC Basis sets                               
  Anastasios Papadopoulos: AUTO-CI, single reference methods and gradients 
  Taras Petrenko         : pre 6.0 DFT Hessian and TD-DFT gradient, (ASA, deprecated), ECA, 1-Electron XAS/XES, NRVS 
  Peter Pinski           : DLPNO-MP2, DLPNO-MP2 Gradient                 
  Christoph Reimann      : Effective Core Potentials                     
  Marius Retegan         : Local ZFS, SOC                                
  Christoph Riplinger    : Optimizer, TS searches, QM/MM, DLPNO-CCSD(T), (RO)-DLPNO pert. Triples 
  Michael Roemelt        : Original ROCIS implementation                 
  Masaaki Saitow         : Open-shell DLPNO-CCSD energy and density      
  Barbara Sandhoefer     : DKH picture change effects                    
  Kantharuban Sivalingam : CASSCF convergence/infrastructure, NEVPT2 and variants, FIC-MRCI 
  Bernardo de Souza      : ESD, SOC TD-DFT                               
  Georgi L. Stoychev     : AutoAux, RI-MP2 NMR, DLPNO-MP2 response, X2C  
  Van Anh Tran           : RI-MP2 g-tensors                              
  Willem Van den Heuvel  : Paramagnetic NMR                              
  Zikuan Wang            : NOTCH, Electric field optimization            
  Frank Wennmohs         : Technical directorship and infrastructure     
  Hang Xu                : AUTO-CI-Response properties                   
                                                                         
[FACCTs GmbH]                                                            
  Markus Bursch, Miquel Garcia-Rates, Christoph Riplinger, Bernardo de Souza, Georgi L. Stoychev 
                                                                 
  APM, Basis sets (HGBS, AHGBS, def-TZVP (Ac-Lr), def2-XVPD (La-Lu)), CI-OPT, improved COSX, DLPNO-Multilevel,           
  DOCKER, DRACO, updates on ESD, GOAT, IRC, LR-CPCM, MBIS, meta-GGA TD-DFT gradient, ML-optimized integration grids, 
  MM, NACMEs, nearIR, NEB, NEB-TS, NL-DFT gradient (VV10), 2- and 3-layer-ONIOM, interface openCOSMO-RS, QMMM,   
  Crystal-QMMM, SF, symmetry and pop. for TD-DFT, r2SCAN hybrids, SOLVATOR                                   
                                                                         
[Other institutions]                                                     
  V. Asgeirsson          : NEB                                           
  Christoph Bannwarth    : sTDA-DFT, sTD-DFT, PBEh-3c, B97-3c, D3        
  Sebastian Ehlert       : rSCAN, r2SCAN, r2SCAN-3c, D4, dhf basis sets  
  Marvin Friede          : D4 for Fr, Ra, Ac-Lr                          
  Lars Goerigk           : TD-DFT with DH, B97 family of functionals     
  Stefan Grimme          : VdW corrections, initial TS optimization, DFT functionals, gCP, sTDA/sTD-DF 
  Waldemar Hujo          : DFT-NL                                        
  H. Jonsson             : NEB                                           
  Holger Kruse           : gCP                                           
  Marcel Mueller         : wB97X-3c, vDZP basis set                      
  Hagen Neugebauer       : wr2SCAN                                       
  Tobias Risthaus        : range-separated hybrid DFT                    
  Lukas Wittmann         : regularized MP2, r2SCAN double-hybrids, wr2SCAN        
                                                                         
We gratefully acknowledge several colleagues who have allowed us to      
interface, adapt or use parts of their codes:                            
  Ed Valeev, F. Pavosevic, A. Kumar             : LibInt (2-el integral package), F12 methods 
  Garnet Chan, S. Sharma, J. Yang, R. Olivares  : DMRG                   
  Ulf Ekstrom                                   : XCFun DFT Library      
  Mihaly Kallay                                 : mrcc  (arbitrary order and MRCC methods)
  Frank Weinhold                                : gennbo (NPA and NBO analysis)           
  Simon Mueller                                 : openCOSMO-RS                            
  Christopher J. Cramer and Donald G. Truhlar   : smd solvation model                     
  S Lehtola, MJT Oliveira, MAL Marques          : LibXC Library                           
  Liviu Ungur et al                             : ANISO software                          


 Your calculation uses the libint2 library for the computation of 2-el integrals
 For citations please refer to: http://libint.valeyev.net

 Your ORCA version has been built with support for libXC version: 6.2.2
 For citations please refer to: https://libxc.gitlab.io

 This ORCA versions uses:
   CBLAS   interface :  Fast vector & matrix operations
   LAPACKE interface :  Fast linear algebra routines
   SCALAPACK package :  Parallel linear algebra routines
   Shared memory     :  Shared parallel matrices
   BLAS/LAPACK       :  OpenBLAS 0.3.27  USE64BITINT DYNAMIC_ARCH NO_AFFINITY SkylakeX SINGLE_THREADED
        Core in use  :  SkylakeX
   Copyright (c) 2011-2014, The OpenBLAS Project


Your calculation utilizes the atom-pairwise dispersion correction
based on EEQ partial charges (D4)


================================================================================

cite the ECPs for C  [vDZP-ECP], O  [vDZP-ECP] as follows:
   B-Ne (ecp-2-mwb), Al-Ar (ecp-10-mwb), Ga-Kr (ecp-28-mwb), Y-Cd (ecp-28-mwb), In-Xe (ecp-46-mwb):
     A. Bergner, M. Dolg, W. Küchle, H. Stoll, and H. Preuß, Mol. Phys. 80, 1431 (1993)., T. Leininger, A. Berning, A. Nicklass, H. Stoll, H.-J. Werner, and H.-J.Flad, Chem. Phys. 217, 19 (1997).
   Na-Mg, K-Ca, Rb-Sr, Cs-Ba (CRENBL):
     L. Fernandez Pacios and P. A. Christiansen, J. Chem. Phys. 82, 2664 (1985)., M. M. Hurley, L. F. Pacios, P. A. Christiansen, R. B. Ross, and W. C. Ermler, J. Chem. Phys. 84, 6840 (1986)., L. A. LaJohn, P. A. Christiansen, R. B. Ross, T. Atashroo, and W. C. Ermler, J. Chem. Phys. 87, 2812 (1987)., R. B. Ross, J. M. Powers, T. Atashroo, W. C. Ermler, L. A. LaJohn, and P. A. Christiansen, J. Chem. Phys. 93, 6654 (1990). 
   Sc-Zn (ecp-10-mdf):
     M. Dolg, U. Wedig, H. Stoll, and H. Preuss, J. Chem. Phys. 86, 866 (1986). 
   Y-Cd (ecp-28-mwb), Hf-Hg (ecp-60-mwb):
     D. Andrae, U. Häußermann, M. Dolg, H. Stoll, and H. Preuß, Theor. Chim. Acta 77, 123 (1990). 
   La (ecp-46-mwb):
     M. Dolg, H. Stoll, and H. Preuss, J. Chem. Phys. 90, 1730 (1989)., M. Dolg, H. Stoll, and H. Preuss, Theor. Chim. Acta 85, 441 (1993).
   Ce-Lu (SBKJC-ecp):
     T. R. Cundari and W. J. Stevens, J. Chem. Phys. 98, 5555 (1993).
   Tl-Rn (ecp-78-mwb):
     W. Küchle, M. Dolg, H. Stoll, and H. Preuss, Mol. Phys. 74, 1245 (1991).

ECP parameters for C  [vDZP-ECP], O  [vDZP-ECP] have been obtained from:
MM, AH, SG, J. Chem. Phys. 158, 014103 (2023), 10.1063/5.0133026

----- Orbital basis set information -----
Your calculation utilizes the basis: vDZP
   Marcel Mueller, Andreas Hansen, Stefan Grimme 
   J. Chem. Phys. 158, 014103 (2023). DOI: 10.1063/5.0133026

----- AuxJ basis set information -----
Your calculation utilizes the auxiliary basis: def2/J
   F. Weigend, Phys. Chem. Chem. Phys. 8, 1057 (2006).

================================================================================
                                        WARNINGS
                       Please study these warnings very carefully!
================================================================================

WARNING: Frozen-Core approximation turned on, but there are no core electrons.
  ===> : Turning off frozen-core approximation


WARNING: Geometry Optimization
  ===> : Switching off AutoStart
         For restart on a previous wavefunction, please use MOREAD

================================================================================
                                       INPUT FILE
================================================================================
NAME = ./output/oleic_acid/oleic_acid.inp
|  1> ! wB97X-3c OPT FREQ TightSCF
|  2> %pal
|  3>   nprocs 40
|  4> end
|  5> * xyz 0 1
|  6> C     -7.559038     1.029241    -0.547666
|  7> C     -6.970539     0.490137     0.755628
|  8> C     -6.172833    -0.811865     0.563040
|  9> C     -4.943811    -0.687181    -0.355577
| 10> C     -3.886174     0.284898     0.188043
| 11> C     -2.602809     0.224921    -0.653340
| 12> C     -1.579251     1.305575    -0.259074
| 13> C     -1.013345     1.150991     1.163713
| 14> C     -0.346167    -0.180830     1.381638
| 15> C      0.795332    -0.505480     0.759312
| 16> C      1.444603    -1.844079     0.994226
| 17> C      2.756001    -1.997372     0.211369
| 18> C      3.872445    -1.102820     0.776883
| 19> C      5.234158    -1.342899     0.100786
| 20> C      5.272494    -1.063257    -1.414026
| 21> C      4.859425     0.360569    -1.835101
| 22> C      5.843205     1.456279    -1.384402
| 23> C      5.536976     1.975594    -0.012586
| 24> O      4.447766     2.569607     0.209922
| 25> O      6.466834     1.825469     1.011544
| 26> H     -8.246848     1.871201    -0.321417
| 27> H     -8.131456     0.236049    -1.073983
| 28> H     -6.755663     1.411312    -1.211227
| 29> H     -6.340210     1.268985     1.233540
| 30> H     -7.809524     0.279606     1.453716
| 31> H     -5.841765    -1.175193     1.560379
| 32> H     -6.849480    -1.588738     0.144803
| 33> H     -4.488622    -1.697920    -0.446090
| 34> H     -5.256072    -0.378649    -1.375816
| 35> H     -3.654019     0.013697     1.239976
| 36> H     -4.285623     1.321067     0.161763
| 37> H     -2.143381    -0.783885    -0.570803
| 38> H     -2.866344     0.382041    -1.722334
| 39> H     -0.740144     1.280088    -0.987741
| 40> H     -2.052388     2.307639    -0.348885
| 41> H     -1.825922     1.280712     1.908697
| 42> H     -0.275116     1.960990     1.350204
| 43> H     -0.800429    -0.880889     2.077903
| 44> H      1.251059     0.204410     0.073411
| 45> H      0.741222    -2.639893     0.665910
| 46> H      1.635588    -1.984051     2.080771
| 47> H      3.078389    -3.059659     0.272243
| 48> H      2.568454    -1.757339    -0.857141
| 49> H      3.589574    -0.034333     0.696819
| 50> H      3.991839    -1.322418     1.860362
| 51> H      5.529792    -2.401896     0.266069
| 52> H      6.002845    -0.724596     0.607425
| 53> H      4.618366    -1.792970    -1.936373
| 54> H      6.303496    -1.260874    -1.780274
| 55> H      4.836963     0.372440    -2.946775
| 56> H      3.821981     0.588997    -1.510968
| 57> H      5.775212     2.310881    -2.091674
| 58> H      6.888853     1.081906    -1.425197
| 59> H      6.274102     2.173783     1.942986
| 60> *
| 61> 
| 62>                          ****END OF INPUT****
================================================================================

                       *****************************
                       * Geometry Optimization Run *
                       *****************************

Geometry optimization settings:
Update method            Update   .... BFGS
Choice of coordinates    CoordSys .... (2022) Redundant Internals
Initial Hessian          InHess   .... Almloef's Model
Max. no of cycles        MaxIter  .... 162

Convergence Tolerances:
Energy Change            TolE     ....  5.0000e-06 Eh
Max. Gradient            TolMAXG  ....  3.0000e-04 Eh/bohr
RMS Gradient             TolRMSG  ....  1.0000e-04 Eh/bohr
Max. Displacement        TolMAXD  ....  4.0000e-03 bohr
RMS Displacement         TolRMSD  ....  2.0000e-03 bohr
Strict Convergence                .... False

------------------------------------------------------------------------------
                        ORCA OPTIMIZATION COORDINATE SETUP
------------------------------------------------------------------------------

The optimization will be done in redundant internal coordinates (2022)
Making redundant internal coordinates   ...  (2022 redundants) done
Evaluating the initial hessian          ...  (Almloef) done
Evaluating the coordinates              ...  done
Calculating the B-matrix                .... done
Calculating the G-matrix                .... done
Diagonalizing the G-matrix              .... done
Small eigenvalue found = 1.145e-03
Small eigenvalue found = 1.926e-03
Small eigenvalue found = 3.163e-03
Small eigenvalue found = 4.109e-03
Small eigenvalue found = 7.335e-03
Small eigenvalue found = 9.409e-03
Small eigenvalue found = 1.313e-02
Small eigenvalue found = 1.917e-02
Small eigenvalue found = 2.436e-02
Small eigenvalue found = 2.603e-02
The first mode is                       ....   97
The number of degrees of freedom        ....  156

    -----------------------------------------------------------------
                    Redundant Internal Coordinates


    -----------------------------------------------------------------
         Definition                    Initial Value    Approx d2E/dq
    -----------------------------------------------------------------
      1. B(C   1,C   0)                  1.5282         0.375988   
      2. B(C   2,C   1)                  1.5390         0.361376   
      3. B(C   3,C   2)                  1.5394         0.360832   
      4. B(C   4,C   3)                  1.5359         0.365535   
      5. B(C   5,C   4)                  1.5358         0.365757   
      6. B(C   6,C   5)                  1.5398         0.360388   
      7. B(C   7,C   6)                  1.5390         0.361448   
      8. B(C   8,C   7)                  1.5054         0.408840   
      9. B(C   9,C   8)                  1.3400         0.750666   
     10. B(C  10,C   9)                  1.5062         0.407734   
     11. B(C  11,C  10)                  1.5350         0.366818   
     12. B(C  12,C  11)                  1.5383         0.362308   
     13. B(C  13,C  12)                  1.5392         0.361216   
     14. B(C  14,C  13)                  1.5409         0.358932   
     15. B(C  15,C  14)                  1.5412         0.358553   
     16. B(C  16,C  15)                  1.5400         0.360129   
     17. B(C  17,C  16)                  1.4984         0.419487   
     18. B(O  18,C  17)                  1.2605         0.900660   
     19. B(O  19,C  17)                  1.3914         0.556710   
     20. B(H  20,C   0)                  1.1105         0.334001   
     21. B(H  21,C   0)                  1.1108         0.333637   
     22. B(H  22,C   0)                  1.1098         0.334811   
     23. B(H  23,C   1)                  1.1101         0.334470   
     24. B(H  24,C   1)                  1.1116         0.332690   
     25. B(H  25,C   2)                  1.1119         0.332277   
     26. B(H  26,C   2)                  1.1119         0.332273   
     27. B(H  27,C   3)                  1.1122         0.331901   
     28. B(H  28,C   3)                  1.1107         0.333769   
     29. B(H  29,C   4)                  1.1109         0.333536   
     30. B(H  30,C   4)                  1.1108         0.333598   
     31. B(H  31,C   5)                  1.1116         0.332673   
     32. B(H  32,C   5)                  1.1122         0.331954   
     33. B(H  33,C   6)                  1.1116         0.332602   
     34. B(H  34,C   6)                  1.1118         0.332409   
     35. B(H  35,C   7)                  1.1100         0.334586   
     36. B(H  36,C   7)                  1.1117         0.332518   
     37. B(H  37,C   8)                  1.0868         0.364304   
     38. B(H  38,C   9)                  1.0872         0.363770   
     39. B(H  39,C  10)                  1.1117         0.332519   
     40. B(H  40,C  10)                  1.1120         0.332085   
     41. B(H  41,C  11)                  1.1118         0.332389   
     42. B(H  42,C  11)                  1.1111         0.333264   
     43. B(H  43,C  12)                  1.1082         0.336820   
     44. B(H  44,C  12)                  1.1119         0.332218   
     45. B(H  45,C  13)                  1.1118         0.332335   
     46. B(H  46,C  13)                  1.1090         0.335833   
     47. B(H  47,C  14)                  1.1105         0.333977   
     48. B(H  48,C  14)                  1.1118         0.332355   
     49. B(H  49,C  15)                  1.1120         0.332185   
     50. B(H  50,H  33)                  4.6437         0.000000   
     51. B(H  50,C  15)                  1.1106         0.333800   
     52. B(H  51,C  16)                  1.1114         0.332879   
     53. B(H  52,C  16)                  1.1114         0.332881   
     54. B(H  53,O  19)                  1.0129         0.428056   
     55. A(C   1,C   0,H  22)          110.6453         0.320810   
     56. A(C   1,C   0,H  21)          110.5255         0.320626   
     57. A(C   1,C   0,H  20)          109.4037         0.320683   
     58. A(H  21,C   0,H  22)          109.6072         0.284140   
     59. A(H  20,C   0,H  21)          108.5885         0.284033   
     60. A(H  20,C   0,H  22)          108.0082         0.284188   
     61. A(C   0,C   1,H  23)          109.7733         0.320756   
     62. A(H  23,C   1,H  24)          106.9232         0.283969   
     63. A(C   0,C   1,C   2)          113.0358         0.361695   
     64. A(C   2,C   1,H  24)          108.0336         0.318409   
     65. A(C   0,C   1,H  24)          108.1645         0.320477   
     66. A(C   2,C   1,H  23)          110.6777         0.318687   
     67. A(C   1,C   2,C   3)          114.8314         0.359167   
     68. A(C   3,C   2,H  26)          108.5405         0.318266   
     69. A(C   1,C   2,H  25)          108.5738         0.318345   
     70. A(H  25,C   2,H  26)          106.8751         0.283624   
     71. A(C   3,C   2,H  25)          108.9048         0.318267   
     72. A(C   1,C   2,H  26)          108.8282         0.318344   
     73. A(C   4,C   3,H  27)          108.7925         0.318881   
     74. A(H  27,C   3,H  28)          107.0231         0.283772   
     75. A(C   2,C   3,H  28)          110.2538         0.318499   
     76. A(C   2,C   3,C   4)          112.9424         0.359868   
     77. A(C   2,C   3,H  27)          107.5597         0.318208   
     78. A(C   4,C   3,H  28)          110.0540         0.319173   
     79. A(H  29,C   4,H  30)          108.9830         0.283966   
     80. A(C   5,C   4,H  30)          108.9033         0.319178   
     81. A(C   5,C   4,H  29)          109.5497         0.319168   
     82. A(C   3,C   4,H  29)          108.9388         0.319137   
     83. A(C   3,C   4,H  30)          109.5344         0.319146   
     84. A(C   3,C   4,C   5)          110.9043         0.360700   
     85. A(C   4,C   5,H  32)          108.8485         0.318921   
     86. A(H  31,C   5,H  32)          107.3091         0.283634   
     87. A(C   6,C   5,H  31)          110.0708         0.318265   
     88. A(C   4,C   5,C   6)          112.8180         0.359830   
     89. A(C   4,C   5,H  31)          109.8862         0.319033   
     90. A(C   6,C   5,H  32)          107.7270         0.318152   
     91. A(C   7,C   6,H  34)          108.7659         0.318376   
     92. A(C   5,C   6,H  34)          109.2073         0.318223   
     93. A(C   7,C   6,H  33)          109.0344         0.318406   
     94. A(C   5,C   6,H  33)          108.5327         0.318253   
     95. A(C   5,C   6,C   7)          114.2463         0.359104   
     96. A(H  33,C   6,H  34)          106.7952         0.283685   
     97. A(H  35,C   7,H  36)          106.7612         0.283962   
     98. A(C   6,C   7,H  36)          109.0314         0.318393   
     99. A(C   8,C   7,H  35)          109.3088         0.325211   
    100. A(C   6,C   7,H  35)          109.8499         0.318715   
    101. A(C   6,C   7,C   8)          112.6842         0.366927   
    102. A(C   8,C   7,H  36)          109.0266         0.324880   
    103. A(C   9,C   8,H  37)          119.8350         0.365308   
    104. A(C   7,C   8,H  37)          118.5118         0.329805   
    105. A(C   7,C   8,C   9)          121.6424         0.416922   
    106. A(C   8,C   9,H  38)          119.4623         0.365216   
    107. A(C   8,C   9,C  10)          120.6694         0.416721   
    108. A(C  10,C   9,H  38)          119.8670         0.329577   
    109. A(C   9,C  10,C  11)          112.1786         0.367685   
    110. A(H  39,C  10,H  40)          107.8856         0.283631   
    111. A(C  11,C  10,H  40)          109.8173         0.319092   
    112. A(C   9,C  10,H  40)          109.7725         0.324666   
    113. A(C  11,C  10,H  39)          108.5688         0.319160   
    114. A(C   9,C  10,H  39)          108.5060         0.324735   
    115. A(C  10,C  11,C  12)          111.9921         0.360333   
    116. A(H  41,C  11,H  42)          107.9397         0.283770   
    117. A(C  12,C  11,H  42)          110.5122         0.318633   
    118. A(C  10,C  11,H  42)          108.9466         0.319276   
    119. A(C  12,C  11,H  41)          108.9679         0.318496   
    120. A(C  10,C  11,H  41)          108.3747         0.319140   
    121. A(C  11,C  12,C  13)          112.9480         0.359390   
    122. A(H  43,C  12,H  44)          106.7515         0.284216   
    123. A(C  13,C  12,H  44)          107.5911         0.318313   
    124. A(C  11,C  12,H  44)          108.7410         0.318469   
    125. A(C  13,C  12,H  43)          110.1503         0.319028   
    126. A(C  11,C  12,H  43)          110.4177         0.319185   
    127. A(C  12,C  13,C  14)          115.1845         0.358817   
    128. A(C  14,C  13,H  46)          109.3106         0.318545   
    129. A(H  45,C  13,H  46)          106.1898         0.284102   
    130. A(C  12,C  13,H  46)          109.0013         0.318875   
    131. A(C  14,C  13,H  45)          108.2028         0.318002   
    132. A(C  12,C  13,H  45)          108.5728         0.318331   
    133. A(C  13,C  14,C  15)          115.4415         0.358366   
    134. A(H  47,C  14,H  48)          105.9310         0.283860   
    135. A(C  15,C  14,H  48)          108.8291         0.317950   
    136. A(C  13,C  14,H  48)          108.3398         0.318005   
    137. A(C  15,C  14,H  47)          108.7041         0.318203   
    138. A(C  13,C  14,H  47)          109.1781         0.318257   
    139. A(C  14,C  15,C  16)          113.9634         0.358569   
    140. A(H  49,C  15,H  50)          105.7060         0.283814   
    141. A(C  16,C  15,H  50)          111.4060         0.318403   
    142. A(C  14,C  15,H  50)          111.1391         0.318175   
    143. A(C  16,C  15,H  49)          107.3314         0.318151   
    144. A(C  14,C  15,H  49)          106.7636         0.317924   
    145. A(H  51,C  16,H  52)          107.0507         0.283784   
    146. A(C  17,C  16,H  52)          110.0366         0.326315   
    147. A(C  15,C  16,H  52)          110.5253         0.318260   
    148. A(C  17,C  16,H  51)          107.6744         0.326315   
    149. A(C  15,C  16,H  51)          108.7708         0.318259   
    150. A(C  15,C  16,C  17)          112.5796         0.368317   
    151. A(O  18,C  17,O  19)          119.8947         0.449451   
    152. A(C  16,C  17,O  19)          119.9915         0.394722   
    153. A(C  16,C  17,O  18)          120.1019         0.429891   
    154. A(C  17,O  19,H  53)          120.8347         0.351533   
    155. D(C   2,C   1,C   0,H  20)    171.2764         0.011280   
    156. D(H  23,C   1,C   0,H  20)    -64.6254         0.011280   
    157. D(C   2,C   1,C   0,H  21)     51.7552         0.011280   
    158. D(C   2,C   1,C   0,H  22)    -69.8437         0.011280   
    159. D(H  23,C   1,C   0,H  21)    175.8533         0.011280   
    160. D(H  23,C   1,C   0,H  22)     54.2544         0.011280   
    161. D(C   3,C   2,C   1,H  24)   -178.5261         0.010472   
    162. D(C   3,C   2,C   1,C   0)     61.8242         0.010472   
    163. D(H  25,C   2,C   1,C   0)   -176.0277         0.010472   
    164. D(C   3,C   2,C   1,H  23)    -61.7771         0.010472   
    165. D(H  25,C   2,C   1,H  23)     60.3710         0.010472   
    166. D(H  25,C   2,C   1,H  24)    -56.3780         0.010472   
    167. D(C   4,C   3,C   2,H  25)    -59.5142         0.010442   
    168. D(C   4,C   3,C   2,C   1)     62.4546         0.010442   
    169. D(C   4,C   3,C   2,H  26)   -175.5219         0.010442   
    170. D(H  27,C   3,C   2,H  26)    -55.4652         0.010442   
    171. D(H  27,C   3,C   2,C   1)   -177.4887         0.010442   
    172. D(H  27,C   3,C   2,H  25)     60.5425         0.010442   
    173. D(H  29,C   4,C   3,H  28)    174.9987         0.010698   
    174. D(H  29,C   4,C   3,H  27)    -68.0382         0.010698   
    175. D(C   5,C   4,C   3,H  27)     52.6098         0.010698   
    176. D(C   5,C   4,C   3,C   2)    171.9570         0.010698   
    177. D(C   5,C   4,C   3,H  28)    -64.3533         0.010698   
    178. D(H  29,C   4,C   3,C   2)     51.3090         0.010698   
    179. D(H  31,C   5,C   4,H  30)    175.3772         0.010710   
    180. D(H  31,C   5,C   4,H  29)     56.2687         0.010710   
    181. D(H  31,C   5,C   4,C   3)    -64.0167         0.010710   
    182. D(C   6,C   5,C   4,H  30)     52.1393         0.010710   
    183. D(C   6,C   5,C   4,H  29)    -66.9691         0.010710   
    184. D(C   6,C   5,C   4,C   3)    172.7454         0.010710   
    185. D(C   7,C   6,C   5,C   4)     65.0477         0.010418   
    186. D(H  33,C   6,C   5,H  32)    -52.9031         0.010418   
    187. D(H  33,C   6,C   5,H  31)     63.7987         0.010418   
    188. D(H  33,C   6,C   5,C   4)   -173.0660         0.010418   
    189. D(C   7,C   6,C   5,H  32)   -174.7894         0.010418   
    190. D(C   7,C   6,C   5,H  31)    -58.0876         0.010418   
    191. D(H  35,C   7,C   6,H  34)     58.0038         0.010476   
    192. D(H  35,C   7,C   6,H  33)    174.1105         0.010476   
    193. D(H  35,C   7,C   6,C   5)    -64.2789         0.010476   
    194. D(C   8,C   7,C   6,H  34)   -179.8612         0.010476   
    195. D(C   8,C   7,C   6,H  33)    -63.7545         0.010476   
    196. D(C   8,C   7,C   6,C   5)     57.8560         0.010476   
    197. D(H  37,C   8,C   7,H  35)      9.2552         0.012382   
    198. D(H  37,C   8,C   7,C   6)   -113.1844         0.012382   
    199. D(C   9,C   8,C   7,H  36)    -53.1857         0.012382   
    200. D(C   9,C   8,C   7,H  35)   -169.5485         0.012382   
    201. D(C   9,C   8,C   7,C   6)     68.0119         0.012382   
    202. D(H  38,C   9,C   8,H  37)   -179.2424         0.040193   
    203. D(H  38,C   9,C   8,C   7)     -0.4542         0.040193   
    204. D(C  10,C   9,C   8,H  37)      1.1722         0.040193   
    205. D(C  10,C   9,C   8,C   7)    179.9604         0.040193   
    206. D(H  40,C  10,C   9,C   8)    -56.2639         0.012318   
    207. D(H  39,C  10,C   9,H  38)   -118.1713         0.012318   
    208. D(H  39,C  10,C   9,C   8)     61.4124         0.012318   
    209. D(C  11,C  10,C   9,H  38)      1.7683         0.012318   
    210. D(C  11,C  10,C   9,C   8)   -178.6480         0.012318   
    211. D(H  41,C  11,C  10,H  40)     68.2782         0.010768   
    212. D(H  41,C  11,C  10,H  39)    -49.4602         0.010768   
    213. D(H  41,C  11,C  10,C   9)   -169.3632         0.010768   
    214. D(C  12,C  11,C  10,H  40)    -51.9556         0.010768   
    215. D(C  12,C  11,C  10,H  39)   -169.6939         0.010768   
    216. D(C  12,C  11,C  10,C   9)     70.4031         0.010768   
    217. D(C  13,C  12,C  11,C  10)    174.1815         0.010522   
    218. D(H  43,C  12,C  11,H  42)     59.6809         0.010522   
    219. D(H  43,C  12,C  11,H  41)    178.1274         0.010522   
    220. D(H  43,C  12,C  11,C  10)    -61.9852         0.010522   
    221. D(C  13,C  12,C  11,H  42)    -64.1524         0.010522   
    222. D(C  13,C  12,C  11,H  41)     54.2941         0.010522   
    223. D(H  45,C  13,C  12,H  44)     59.5618         0.010463   
    224. D(H  45,C  13,C  12,H  43)    175.5645         0.010463   
    225. D(H  45,C  13,C  12,C  11)    -60.4552         0.010463   
    226. D(C  14,C  13,C  12,H  44)   -178.9606         0.010463   
    227. D(C  14,C  13,C  12,H  43)    -62.9580         0.010463   
    228. D(C  14,C  13,C  12,C  11)     61.0223         0.010463   
    229. D(H  47,C  14,C  13,H  46)    171.2121         0.010340   
    230. D(H  47,C  14,C  13,H  45)     55.9834         0.010340   
    231. D(H  47,C  14,C  13,C  12)    -65.6942         0.010340   
    232. D(C  15,C  14,C  13,H  46)    -66.0058         0.010340   
    233. D(C  15,C  14,C  13,H  45)    178.7655         0.010340   
    234. D(C  15,C  14,C  13,C  12)     57.0879         0.010340   
    235. D(H  49,C  15,C  14,H  48)     63.6828         0.010320   
    236. D(H  49,C  15,C  14,H  47)    -51.2539         0.010320   
    237. D(H  49,C  15,C  14,C  13)   -174.2873         0.010320   
    238. D(C  16,C  15,C  14,H  48)    -54.6343         0.010320   
    239. D(C  16,C  15,C  14,H  47)   -169.5709         0.010320   
    240. D(C  16,C  15,C  14,C  13)     67.3956         0.010320   
    241. D(H  51,C  16,C  15,H  50)    -80.3995         0.010404   
    242. D(H  51,C  16,C  15,H  49)     34.8730         0.010404   
    243. D(H  51,C  16,C  15,C  14)    152.8646         0.010404   
    244. D(C  17,C  16,C  15,H  50)     38.8498         0.010404   
    245. D(C  17,C  16,C  15,H  49)    154.1222         0.010404   
    246. D(C  17,C  16,C  15,C  14)    -87.8861         0.010404   
    247. D(O  19,C  17,C  16,H  51)   -122.2613         0.013013   
    248. D(O  19,C  17,C  16,C  15)    117.8532         0.013013   
    249. D(O  18,C  17,C  16,H  52)    172.8273         0.013013   
    250. D(O  18,C  17,C  16,H  51)     56.4819         0.013013   
    251. D(O  18,C  17,C  16,C  15)    -63.4035         0.013013   
    252. D(H  53,O  19,C  17,O  18)      1.0941         0.022442   
    253. D(H  53,O  19,C  17,C  16)    179.8400         0.022442   
    -----------------------------------------------------------------

Number of atoms                         .... 54
Number of degrees of freedom            .... 253


         *************************************************************
         *                GEOMETRY OPTIMIZATION CYCLE   1            *
         *************************************************************
---------------------------------
CARTESIAN COORDINATES (ANGSTROEM)
---------------------------------
  C     -7.559038    1.029241   -0.547666
  C     -6.970539    0.490137    0.755628
  C     -6.172833   -0.811865    0.563040
  C     -4.943811   -0.687181   -0.355577
  C     -3.886174    0.284898    0.188043
  C     -2.602809    0.224921   -0.653340
  C     -1.579251    1.305575   -0.259074
  C     -1.013345    1.150991    1.163713
  C     -0.346167   -0.180830    1.381638
  C      0.795332   -0.505480    0.759312
  C      1.444603   -1.844079    0.994226
  C      2.756001   -1.997372    0.211369
  C      3.872445   -1.102820    0.776883
  C      5.234158   -1.342899    0.100786
  C      5.272494   -1.063257   -1.414026
  C      4.859425    0.360569   -1.835101
  C      5.843205    1.456279   -1.384402
  C      5.536976    1.975594   -0.012586
  O      4.447766    2.569607    0.209922
  O      6.466834    1.825469    1.011544
  H     -8.246848    1.871201   -0.321417
  H     -8.131456    0.236049   -1.073983
  H     -6.755663    1.411312   -1.211227
  H     -6.340210    1.268985    1.233540
  H     -7.809524    0.279606    1.453716
  H     -5.841765   -1.175193    1.560379
  H     -6.849480   -1.588738    0.144803
  H     -4.488622   -1.697920   -0.446090
  H     -5.256072   -0.378649   -1.375816
  H     -3.654019    0.013697    1.239976
  H     -4.285623    1.321067    0.161763
  H     -2.143381   -0.783885   -0.570803
  H     -2.866344    0.382041   -1.722334
  H     -0.740144    1.280088   -0.987741
  H     -2.052388    2.307639   -0.348885
  H     -1.825922    1.280712    1.908697
  H     -0.275116    1.960990    1.350204
  H     -0.800429   -0.880889    2.077903
  H      1.251059    0.204410    0.073411
  H      0.741222   -2.639893    0.665910
  H      1.635588   -1.984051    2.080771
  H      3.078389   -3.059659    0.272243
  H      2.568454   -1.757339   -0.857141
  H      3.589574   -0.034333    0.696819
  H      3.991839   -1.322418    1.860362
  H      5.529792   -2.401896    0.266069
  H      6.002845   -0.724596    0.607425
  H      4.618366   -1.792970   -1.936373
  H      6.303496   -1.260874   -1.780274
  H      4.836963    0.372440   -2.946775
  H      3.821981    0.588997   -1.510968
  H      5.775212    2.310881   -2.091674
  H      6.888853    1.081906   -1.425197
  H      6.274102    2.173783    1.942986

----------------------------
CARTESIAN COORDINATES (A.U.)
----------------------------
  NO LB      ZA    FRAG     MASS         X           Y           Z
   0 C     4.0000*   0    12.011  -14.284512    1.944984   -1.034939
   1 C     4.0000*   0    12.011  -13.172410    0.926225    1.427930
   2 C     4.0000*   0    12.011  -11.664964   -1.534203    1.063991
   3 C     4.0000*   0    12.011   -9.342449   -1.298584   -0.671943
   4 C     4.0000*   0    12.011   -7.343805    0.538379    0.355350
   5 C     4.0000*   0    12.011   -4.918596    0.425039   -1.234634
   6 C     4.0000*   0    12.011   -2.984352    2.467179   -0.489579
   7 C     4.0000*   0    12.011   -1.914945    2.175058    2.199099
   8 C     4.0000*   0    12.011   -0.654161   -0.341719    2.610917
   9 C     4.0000*   0    12.011    1.502960   -0.955219    1.434892
  10 C     4.0000*   0    12.011    2.729904   -3.484804    1.878815
  11 C     4.0000*   0    12.011    5.208087   -3.774486    0.399430
  12 C     4.0000*   0    12.011    7.317861   -2.084028    1.468096
  13 C     4.0000*   0    12.011    9.891125   -2.537711    0.190458
  14 C     4.0000*   0    12.011    9.963570   -2.009265   -2.672122
  15 C     4.0000*   0    12.011    9.182982    0.681377   -3.467838
  16 C     4.0000*   0    12.011   11.042057    2.751968   -2.616141
  17 C     4.0000*   0    12.011   10.463368    3.733332   -0.023784
  18 O     6.0000*   0    15.999    8.405060    4.855854    0.396695
  19 O     6.0000*   0    15.999   12.220545    3.449636    1.911541
  20 H     1.0000    0     1.008  -15.584284    3.536057   -0.607390
  21 H     1.0000    0     1.008  -15.366225    0.446068   -2.029534
  22 H     1.0000    0     1.008  -12.766353    2.666993   -2.288887
  23 H     1.0000    0     1.008  -11.981261    2.398034    2.331053
  24 H     1.0000    0     1.008  -14.757862    0.528379    2.747125
  25 H     1.0000    0     1.008  -11.039336   -2.220793    2.948689
  26 H     1.0000    0     1.008  -12.943641   -3.002280    0.273638
  27 H     1.0000    0     1.008   -8.482266   -3.208604   -0.842988
  28 H     1.0000    0     1.008   -9.932537   -0.715543   -2.599915
  29 H     1.0000    0     1.008   -6.905095    0.025884    2.343215
  30 H     1.0000    0     1.008   -8.098654    2.496455    0.305688
  31 H     1.0000    0     1.008   -4.050403   -1.481328   -1.078661
  32 H     1.0000    0     1.008   -5.416605    0.721953   -3.254740
  33 H     1.0000    0     1.008   -1.398669    2.419016   -1.866560
  34 H     1.0000    0     1.008   -3.878451    4.360806   -0.659297
  35 H     1.0000    0     1.008   -3.450493    2.420195    3.606915
  36 H     1.0000    0     1.008   -0.519894    3.705734    2.551516
  37 H     1.0000    0     1.008   -1.512592   -1.664639    3.926668
  38 H     1.0000    0     1.008    2.364159    0.386279    0.138727
  39 H     1.0000    0     1.008    1.400707   -4.988675    1.258388
  40 H     1.0000    0     1.008    3.090813   -3.749313    3.932087
  41 H     1.0000    0     1.008    5.817312   -5.781918    0.514465
  42 H     1.0000    0     1.008    4.853675   -3.320889   -1.619762
  43 H     1.0000    0     1.008    6.783312   -0.064880    1.316797
  44 H     1.0000    0     1.008    7.543482   -2.499008    3.515575
  45 H     1.0000    0     1.008   10.449792   -4.538926    0.502798
  46 H     1.0000    0     1.008   11.343733   -1.369288    1.147867
  47 H     1.0000    0     1.008    8.727447   -3.388222   -3.659215
  48 H     1.0000    0     1.008   11.911881   -2.382707   -3.364230
  49 H     1.0000    0     1.008    9.140535    0.703810   -5.568598
  50 H     1.0000    0     1.008    7.222497    1.113043   -2.855316
  51 H     1.0000    0     1.008   10.913569    4.366932   -3.952691
  52 H     1.0000    0     1.008   13.018046    2.044506   -2.693232
  53 H     1.0000    0     1.008   11.856335    4.107855    3.671711
* core charge reduced due to ECP

--------------------------------
INTERNAL COORDINATES (ANGSTROEM)
--------------------------------
 C      0   0   0     0.000000000000     0.00000000     0.00000000
 C      1   0   0     1.528247181006     0.00000000     0.00000000
 C      2   1   0     1.539036779347   113.03583922     0.00000000
 C      3   2   1     1.539447423275   114.83144879    61.82422871
 C      4   3   2     1.535921974063   112.94238223    62.45459349
 C      5   4   3     1.535756594140   110.90428727   171.95702947
 C      6   5   4     1.539782363140   112.81801368   172.74544038
 C      7   6   5     1.538982995767   114.24634932    65.04766410
 C      8   7   6     1.505445105392   112.68421159    57.85603201
 C      9   8   7     1.340040014245   121.64242023    68.01190731
 C     10   9   8     1.506182160842   120.66942860   179.96036760
 C     11  10   9     1.534968579712   112.17859850   181.35204643
 C     12  11  10     1.538335649342   111.99214636    70.40305626
 C     13  12  11     1.539158008139   112.94797182   174.18147981
 C     14  13  12     1.540884386450   115.18453281    61.02234440
 C     15  14  13     1.541171837487   115.44152136    57.08793621
 C     16  15  14     1.539978272931   113.96343919    67.39564375
 C     17  16  15     1.498446998570   112.57962014   272.11388475
 O     18  17  16     1.260452172172   120.10188776   296.59645261
 O     18  17  16     1.391407802439   119.99145965   117.85317233
 H      1   2   3     1.110480908301   109.40370209   171.27638741
 H      1   2   3     1.110776980351   110.52553466    51.75516978
 H      1   2   3     1.109821084854   110.64525397   290.15625491
 H      2   1   3     1.110098524947   109.77333951   124.09816498
 H      2   1   3     1.111551162984   108.16446529   240.42559822
 H      3   2   1     1.111889534589   108.57377562   183.97233958
 H      3   2   1     1.111892534783   108.82819766   299.95676107
 H      4   3   2     1.112197354345   107.55972370   182.51133400
 H      4   3   2     1.110669412681   110.25376357   298.87516074
 H      5   4   3     1.110859560392   108.93879704    51.30902042
 H      5   4   3     1.110808866800   109.53444018   292.18838763
 H      6   5   4     1.111564658123   109.88623243   295.98327171
 H      6   5   4     1.112153569729   108.84852967    53.22866990
 H      7   6   5     1.111623021310   108.53270766   186.93398000
 H      7   6   5     1.111780957107   109.20725974   303.00640472
 H      8   7   6     1.110004540093   109.84991383   295.72106589
 H      8   7   6     1.111692101943   109.03137734   179.05087264
 H      9   8   7     1.086840153081   118.51181360   246.81557594
 H     10   9   8     1.087240126389   119.46232251   359.54578606
 H     11  10   9     1.111690671731   108.50603504    61.41243717
 H     11  10   9     1.112046522423   109.77254455   303.73607461
 H     12  11  10     1.111797345198   108.37474109   190.63678587
 H     12  11  10     1.111082057455   108.94663055   307.84228670
 H     13  12  11     1.108192544600   110.41772702   298.01477713
 H     13  12  11     1.111937476786   108.74096580    54.82635330
 H     14  13  12     1.111841975307   108.57276734   299.54482633
 H     14  13  12     1.108991154202   109.00127864   184.28045521
 H     15  14  13     1.110500288682   109.17807009   294.30581029
 H     15  14  13     1.111825166201   108.33978599   179.37947323
 H     16  15  14     1.111964272970   106.76357199   185.71265635
 H     16  15  14     1.110644680359   111.13907317   300.52085237
 H     17  16  15     1.111396107802   108.77075551   152.86462096
 H     17  16  15     1.111395121034   110.52532828    35.61155910
 H     20  18  17     1.012942479011   120.83466027   179.83997042

---------------------------
INTERNAL COORDINATES (A.U.)
---------------------------
 C      0   0   0     0.000000000000     0.00000000     0.00000000
 C      1   0   0     2.887968637039     0.00000000     0.00000000
 C      2   1   0     2.908358022999   113.03583922     0.00000000
 C      3   2   1     2.909134027561   114.83144879    61.82422871
 C      4   3   2     2.902471894051   112.94238223    62.45459349
 C      5   4   3     2.902159371287   110.90428727   171.95702947
 C      6   5   4     2.909766972176   112.81801368   172.74544038
 C      7   6   5     2.908256386762   114.24634932    65.04766410
 C      8   7   6     2.844878958844   112.68421159    57.85603201
 C      9   8   7     2.532308635418   121.64242023    68.01190731
 C     10   9   8     2.846271791789   120.66942860   179.96036760
 C     11  10   9     2.900670239829   112.17859850   181.35204643
 C     12  11  10     2.907033079304   111.99214636    70.40305626
 C     13  12  11     2.908587112215   112.94797182   174.18147981
 C     14  13  12     2.911849494425   115.18453281    61.02234440
 C     15  14  13     2.912392698162   115.44152136    57.08793621
 C     16  15  14     2.910137188030   113.96343919    67.39564375
 C     17  16  15     2.831654453493   112.57962014   272.11388475
 O     18  17  16     2.381909410311   120.10188776   296.59645261
 O     18  17  16     2.629379687212   119.99145965   117.85317233
 H      1   2   3     2.098504793637   109.40370209   171.27638741
 H      1   2   3     2.099064288727   110.52553466    51.75516978
 H      1   2   3     2.097257908026   110.64525397   290.15625491
 H      2   1   3     2.097782193819   109.77333951   124.09816498
 H      2   1   3     2.100527281881   108.16446529   240.42559822
 H      3   2   1     2.101166711547   108.57377562   183.97233958
 H      3   2   1     2.101172381092   108.82819766   299.95676107
 H      4   3   2     2.101748406583   107.55972370   182.51133400
 H      4   3   2     2.098861015291   110.25376357   298.87516074
 H      5   4   3     2.099220342390   108.93879704    51.30902042
 H      5   4   3     2.099124545384   109.53444018   292.18838763
 H      6   5   4     2.100552783999   109.88623243   295.98327171
 H      6   5   4     2.101665665651   108.84852967    53.22866990
 H      7   6   5     2.100663074439   108.53270766   186.93398000
 H      7   6   5     2.100961529841   109.20725974   303.00640472
 H      8   7   6     2.097604588184   109.84991383   295.72106589
 H      8   7   6     2.100793617916   109.03137734   179.05087264
 H      9   8   7     2.053830240673   118.51181360   246.81557594
 H     10   9   8     2.054586080685   119.46232251   359.54578606
 H     11  10   9     2.100790915206   108.50603504    61.41243717
 H     11  10   9     2.101463375560   109.77254455   303.73607461
 H     12  11  10     2.100992498845   108.37474109   190.63678587
 H     12  11  10     2.099640800903   108.94663055   307.84228670
 H     13  12  11     2.094180412946   110.41772702   298.01477713
 H     13  12  11     2.101257309169   108.74096580    54.82635330
 H     14  13  12     2.101076837528   108.57276734   299.54482633
 H     14  13  12     2.095689566384   109.00127864   184.28045521
 H     15  14  13     2.098541417249   109.17807009   294.30581029
 H     15  14  13     2.101045072921   108.33978599   179.37947323
 H     16  15  14     2.101307946618   106.76357199   185.71265635
 H     16  15  14     2.098814277974   111.13907317   300.52085237
 H     17  16  15     2.100234270051   108.77075551   152.86462096
 H     17  16  15     2.100232405330   110.52532828    35.61155910
 H     20  18  17     1.914183874745   120.83466027   179.83997042

---------------------
BASIS SET INFORMATION
---------------------
There are 3 groups of distinct atoms

 Group   1 Type C   : 6s6p2d contracted to 2s2p1d pattern {42/42/2}
 Group   2 Type O   : 6s6p2d contracted to 2s2p1d pattern {42/42/2}
 Group   3 Type H   : 8s2p contracted to 2s1p pattern {53/2}

Atom   0C    basis set group =>   1
Atom   1C    basis set group =>   1
Atom   2C    basis set group =>   1
Atom   3C    basis set group =>   1
Atom   4C    basis set group =>   1
Atom   5C    basis set group =>   1
Atom   6C    basis set group =>   1
Atom   7C    basis set group =>   1
Atom   8C    basis set group =>   1
Atom   9C    basis set group =>   1
Atom  10C    basis set group =>   1
Atom  11C    basis set group =>   1
Atom  12C    basis set group =>   1
Atom  13C    basis set group =>   1
Atom  14C    basis set group =>   1
Atom  15C    basis set group =>   1
Atom  16C    basis set group =>   1
Atom  17C    basis set group =>   1
Atom  18O    basis set group =>   2
Atom  19O    basis set group =>   2
Atom  20H    basis set group =>   3
Atom  21H    basis set group =>   3
Atom  22H    basis set group =>   3
Atom  23H    basis set group =>   3
Atom  24H    basis set group =>   3
Atom  25H    basis set group =>   3
Atom  26H    basis set group =>   3
Atom  27H    basis set group =>   3
Atom  28H    basis set group =>   3
Atom  29H    basis set group =>   3
Atom  30H    basis set group =>   3
Atom  31H    basis set group =>   3
Atom  32H    basis set group =>   3
Atom  33H    basis set group =>   3
Atom  34H    basis set group =>   3
Atom  35H    basis set group =>   3
Atom  36H    basis set group =>   3
Atom  37H    basis set group =>   3
Atom  38H    basis set group =>   3
Atom  39H    basis set group =>   3
Atom  40H    basis set group =>   3
Atom  41H    basis set group =>   3
Atom  42H    basis set group =>   3
Atom  43H    basis set group =>   3
Atom  44H    basis set group =>   3
Atom  45H    basis set group =>   3
Atom  46H    basis set group =>   3
Atom  47H    basis set group =>   3
Atom  48H    basis set group =>   3
Atom  49H    basis set group =>   3
Atom  50H    basis set group =>   3
Atom  51H    basis set group =>   3
Atom  52H    basis set group =>   3
Atom  53H    basis set group =>   3
---------------------------------
AUXILIARY/J BASIS SET INFORMATION
---------------------------------
There are 3 groups of distinct atoms

 Group   1 Type C   : 12s5p4d2f1g contracted to 6s4p3d1f1g pattern {711111/2111/211/2/1}
 Group   2 Type O   : 12s5p4d2f1g contracted to 6s4p3d1f1g pattern {711111/2111/211/2/1}
 Group   3 Type H   : 5s2p1d contracted to 3s1p1d pattern {311/2/1}

Atom   0C    basis set group =>   1
Atom   1C    basis set group =>   1
Atom   2C    basis set group =>   1
Atom   3C    basis set group =>   1
Atom   4C    basis set group =>   1
Atom   5C    basis set group =>   1
Atom   6C    basis set group =>   1
Atom   7C    basis set group =>   1
Atom   8C    basis set group =>   1
Atom   9C    basis set group =>   1
Atom  10C    basis set group =>   1
Atom  11C    basis set group =>   1
Atom  12C    basis set group =>   1
Atom  13C    basis set group =>   1
Atom  14C    basis set group =>   1
Atom  15C    basis set group =>   1
Atom  16C    basis set group =>   1
Atom  17C    basis set group =>   1
Atom  18O    basis set group =>   2
Atom  19O    basis set group =>   2
Atom  20H    basis set group =>   3
Atom  21H    basis set group =>   3
Atom  22H    basis set group =>   3
Atom  23H    basis set group =>   3
Atom  24H    basis set group =>   3
Atom  25H    basis set group =>   3
Atom  26H    basis set group =>   3
Atom  27H    basis set group =>   3
Atom  28H    basis set group =>   3
Atom  29H    basis set group =>   3
Atom  30H    basis set group =>   3
Atom  31H    basis set group =>   3
Atom  32H    basis set group =>   3
Atom  33H    basis set group =>   3
Atom  34H    basis set group =>   3
Atom  35H    basis set group =>   3
Atom  36H    basis set group =>   3
Atom  37H    basis set group =>   3
Atom  38H    basis set group =>   3
Atom  39H    basis set group =>   3
Atom  40H    basis set group =>   3
Atom  41H    basis set group =>   3
Atom  42H    basis set group =>   3
Atom  43H    basis set group =>   3
Atom  44H    basis set group =>   3
Atom  45H    basis set group =>   3
Atom  46H    basis set group =>   3
Atom  47H    basis set group =>   3
Atom  48H    basis set group =>   3
Atom  49H    basis set group =>   3
Atom  50H    basis set group =>   3
Atom  51H    basis set group =>   3
Atom  52H    basis set group =>   3
Atom  53H    basis set group =>   3
-------------------------
ECP PARAMETER INFORMATION
-------------------------

 Group 1, Type C  ECP vDZP-ECP (replacing 2 core electrons, lmax=3)
 Group 2, Type O  ECP vDZP-ECP (replacing 2 core electrons, lmax=3)

Atom   0C    ECP group =>   1
Atom   1C    ECP group =>   1
Atom   2C    ECP group =>   1
Atom   3C    ECP group =>   1
Atom   4C    ECP group =>   1
Atom   5C    ECP group =>   1
Atom   6C    ECP group =>   1
Atom   7C    ECP group =>   1
Atom   8C    ECP group =>   1
Atom   9C    ECP group =>   1
Atom  10C    ECP group =>   1
Atom  11C    ECP group =>   1
Atom  12C    ECP group =>   1
Atom  13C    ECP group =>   1
Atom  14C    ECP group =>   1
Atom  15C    ECP group =>   1
Atom  16C    ECP group =>   1
Atom  17C    ECP group =>   1
Atom  18O    ECP group =>   2
Atom  19O    ECP group =>   2



           ************************************************************
           *        Program running with 40 parallel MPI-processes    *
           *              working on a common directory               *
           ************************************************************
------------------------------------------------------------------------------
                             ORCA STARTUP CALCULATIONS
                           -- RI-GTO INTEGRALS CHOSEN --
------------------------------------------------------------------------------
------------------------------------------------------------------------------
                   ___                                                        
                  /   \      - P O W E R E D   B Y -                         
                 /     \                                                     
                 |  |  |   _    _      __       _____    __    __             
                 |  |  |  | |  | |    /  \     |  _  \  |  |  /  |          
                  \  \/   | |  | |   /    \    | | | |  |  | /  /          
                 / \  \   | |__| |  /  /\  \   | |_| |  |  |/  /          
                |  |  |   |  __  | /  /__\  \  |    /   |      \           
                |  |  |   | |  | | |   __   |  |    \   |  |\   \          
                \     /   | |  | | |  |  |  |  | |\  \  |  | \   \       
                 \___/    |_|  |_| |__|  |__|  |_| \__\ |__|  \__/        
                                                                              
                      - O R C A' S   B I G   F R I E N D -                    
                                      &                                       
                       - I N T E G R A L  F E E D E R -                       
                                                                              
 v1 FN, 2020, v2 2021, v3 2022-2024                                           
------------------------------------------------------------------------------


----------------------
SHARK INTEGRAL PACKAGE
----------------------

Number of atoms                             ...     54
Number of basis functions                   ...    430
Number of shells                            ...    202
Maximum angular momentum                    ...      2
Integral batch strategy                     ... SHARK/LIBINT Hybrid
RI-J (if used) integral strategy            ... SPLIT-RIJ (Revised 2003 algorithm where possible)
Printlevel                                  ...      1
Contraction scheme used                     ... SEGMENTED contraction
Prescreening option                         ... SCHWARTZ
   Thresh                                   ... 2.500e-11
   Tcut                                     ... 2.500e-12
   Tpresel                                  ... 2.500e-12 
Coulomb Range Separation                    ... NOT USED
Exchange Range Separation                   ... Long Range
   Mu parameter                             ... 3.000e-01
   Scaling (regular/separated)              ... 1.670e-01 8.330e-01
Multipole approximations                    ... NOT USED
Finite Nucleus Model                        ... NOT USED
CABS basis                                  ... NOT available
Auxiliary Coulomb fitting basis             ... AVAILABLE
   # of basis functions in Aux-J            ...   1354
   # of shells in Aux-J                     ...    470
   Maximum angular momentum in Aux-J        ...      4
Auxiliary J/K fitting basis                 ... NOT available
Auxiliary Correlation fitting basis         ... NOT available
Auxiliary 'external' fitting basis          ... NOT available

Checking pre-screening integrals            ... done (  0.0 sec) Dimension = 202
Check shell pair data                       ... done (  0.0 sec)
Shell pair information
Shell pair cut-off parameter TPreSel        ...   2.5e-12
Total number of shell pairs                 ...     20503
Shell pairs after pre-screening             ...     17202
Total number of primitive shell pairs       ...    193286
Primitive shell pairs kept                  ...    107964
          la=0 lb=0:   5204 shell pairs
          la=1 lb=0:   6744 shell pairs
          la=1 lb=1:   2157 shell pairs
          la=2 lb=0:   1795 shell pairs
          la=2 lb=1:   1142 shell pairs
          la=2 lb=2:    160 shell pairs

Calculating one electron integrals          ... done (  0.0 sec)
Calculating ECP integrals                   ... done (  0.3 sec)
Calculating RI/J V-Matrix + Cholesky decomp.... done (  0.1 sec)
Calculating Nuclear repulsion               ... done (  0.0 sec) ENN=    843.328160425587 Eh

Diagonalization of the overlap matrix:
Smallest eigenvalue                        ... 1.283e-03
Time for diagonalization                   ...    0.027 sec
Threshold for overlap eigenvalues          ... 1.000e-07
Number of eigenvalues below threshold      ... 0
Time for construction of square roots      ...    0.015 sec
Total time needed                          ...    0.046 sec

-------------------
DFT GRID GENERATION
-------------------

General Integration Accuracy     IntAcc      ... 4.388
Radial Grid Type                 RadialGrid  ... OptM3 with GC (2021)
Angular Grid (max. ang.)         AngularGrid ... 4 (Lebedev-302)
Angular grid pruning method      GridPruning ... 4 (adaptive)
Weight generation scheme         WeightScheme... mBecke (2022)
Basis function cutoff            BFCut       ... 1.0000e-11
Integration weight cutoff        WCut        ... 1.0000e-14
Partially contracted basis set               ... off
Rotationally invariant grid construction     ... off
Angular grids for H and He will be reduced by one unit

Total number of grid points                  ...   227151
Total number of batches                      ...     3574
Average number of points per batch           ...       63
Average number of grid points per atom       ...     4206

--------------------
COSX GRID GENERATION
--------------------

GRIDX 1
-------
General Integration Accuracy     IntAcc      ... 3.816
Radial Grid Type                 RadialGrid  ... OptM3 with GC (2021)
Angular Grid (max. ang.)         AngularGrid ... 1 (Lebedev-50)
Angular grid pruning method      GridPruning ... 4 (adaptive)
Weight generation scheme         WeightScheme... mBecke (2022)
Basis function cutoff            BFCut       ... 1.0000e-11
Integration weight cutoff        WCut        ... 1.0000e-14
Partially contracted basis set               ... on
Rotationally invariant grid construction     ... off
Angular grids for H and He will be reduced by one unit

Total number of grid points                  ...    28987
Total number of batches                      ...      263
Average number of points per batch           ...      110
Average number of grid points per atom       ...      537
UseSFitting                                  ... on

GRIDX 2
-------
General Integration Accuracy     IntAcc      ... 4.020
Radial Grid Type                 RadialGrid  ... OptM3 with GC (2021)
Angular Grid (max. ang.)         AngularGrid ... 2 (Lebedev-110)
Angular grid pruning method      GridPruning ... 4 (adaptive)
Weight generation scheme         WeightScheme... mBecke (2022)
Basis function cutoff            BFCut       ... 1.0000e-11
Integration weight cutoff        WCut        ... 1.0000e-14
Partially contracted basis set               ... on
Rotationally invariant grid construction     ... off
Angular grids for H and He will be reduced by one unit

Total number of grid points                  ...    59897
Total number of batches                      ...      497
Average number of points per batch           ...      120
Average number of grid points per atom       ...     1109
UseSFitting                                  ... on

GRIDX 3
-------
General Integration Accuracy     IntAcc      ... 4.338
Radial Grid Type                 RadialGrid  ... OptM3 with GC (2021)
Angular Grid (max. ang.)         AngularGrid ... 3 (Lebedev-194)
Angular grid pruning method      GridPruning ... 4 (adaptive)
Weight generation scheme         WeightScheme... mBecke (2022)
Basis function cutoff            BFCut       ... 1.0000e-11
Integration weight cutoff        WCut        ... 1.0000e-14
Partially contracted basis set               ... on
Rotationally invariant grid construction     ... off
Angular grids for H and He will be reduced by one unit

Total number of grid points                  ...   129917
Total number of batches                      ...     1046
Average number of points per batch           ...      124
Average number of grid points per atom       ...     2406
UseSFitting                                  ... on
Initializing property integral containers    ... done (  0.0 sec)

SHARK setup successfully completed in   7.1 seconds

Maximum memory used throughout the entire STARTUP-calculation: 76.0 MB


           ************************************************************
           *        Program running with 40 parallel MPI-processes    *
           *              working on a common directory               *
           ************************************************************
-------------------------------------------------------------------------------
                                 ORCA GUESS
                   Start orbitals & Density for SCF / CASSCF
-------------------------------------------------------------------------------

------------
SCF SETTINGS
------------
Hamiltonian:
 Density Functional     Method          .... DFT(GTOs)
 Exchange Functional    Exchange        .... WB97X-V
 Correlation Functional Correlation     .... WB97X-V
 Gradients option       PostSCFGGA      .... off
 Hybrid DFT is turned on
   Fraction HF Exchange ScalHFX         ....  0.167000
   Scaling of DF-GGA-X  ScalDFX         ....  0.000000
   Scaling of DF-GGA-C  ScalDFC         ....  1.000000
   Scaling of DF-LDA-C  ScalLDAC        ....  1.000000
   Perturbative correction              ....  0.000000
 Long-range corrected/Screened/Range-Separated Hybrid DFT is turned on
   Amount of maximum screened exact exchange              ....  0.833000
   Range separation parameter mu (erf(mu*r12)/r12)        ....  0.300000
   NL short-range parameter             ....  6.000000
   NL long-range parameter              ....  0.010000
 RI-approximation to the Coulomb term is turned on
   Number of AuxJ basis functions       .... 1354
   RIJ-COSX (HFX calculated with COS-X)).... on


General Settings:
 Integral files         IntName         .... ./output/oleic_acid/oleic_acid
 Hartree-Fock type      HFTyp           .... RHF
 Total Charge           Charge          ....    0
 Multiplicity           Mult            ....    1
 Number of Electrons    NEL             ....  118
 Basis Dimension        Dim             ....  430
 Nuclear Repulsion      ENuc            ....    843.3281604256 Eh

Convergence Acceleration:
 AO-DIIS                CNVDIIS         .... on
   Start iteration      DIISMaxIt       ....    12
   Startup error        DIISStart       ....  0.200000
   # of expansion vecs  DIISMaxEq       ....     5
   Bias factor          DIISBfac        ....   1.050
   Max. coefficient     DIISMaxC        ....  10.000
 MO-DIIS                CNVKDIIS        .... off
 Trust-Rad. Augm. Hess. CNVTRAH         .... auto
   Auto Start mean grad. ratio tolernc. ....  1.125000
   Auto Start start iteration           ....    50
   Auto Start num. interpolation iter.  ....    10
   Max. Number of Micro iterations      ....    24
   Max. Number of Macro iterations      .... Maxiter - #DIIS iter
   Number of Davidson start vectors     ....     2
   Converg. threshold    (grad. norm)   ....   1.000e-05
   Grad. Scal. Fac. for Micro threshold ....   0.100
   Minimum threshold for Micro iter.    ....   1.000e-02
   NR start threshold (gradient norm)   ....   1.000e-04
   Initial trust radius                 ....   0.400
   Minimum AH scaling param. (alpha)    ....   1.000
   Maximum AH scaling param. (alpha)    .... 1000.000
   Quad. conv. algorithm                .... NR
   White noise on init. David. guess    .... on
   Maximum white noise                  ....   0.010
   Pseudo random numbers                .... off
   Inactive MOs                         .... canonical
   Orbital update algorithm             .... Taylor
   Preconditioner                       .... Diag
   Full preconditioner red. dimension   ....   250
 SOSCF                  CNVSOSCF        .... on
   Start iteration      SOSCFMaxIt      ....   150
   Startup grad/error   SOSCFStart      ....  0.003300
   Hessian update       SOSCFHessUp     .... L-BFGS
 Level Shifting         CNVShift        .... on
   Level shift para.    LevelShift      ....    0.2500
   Turn off err/grad.   ShiftErr        ....    0.0010
 Zerner damping         CNVZerner       .... off
 Static damping         CNVDamp         .... on
   Fraction old density DampFac         ....    0.7000
   Max. Damping (<1)    DampMax         ....    0.9800
   Min. Damping (>=0)   DampMin         ....    0.0000
   Turn off err/grad.   DampErr         ....    0.1000

SCF Procedure:
 Maximum # iterations   MaxIter         ....   125
 SCF integral mode      SCFMode         .... Direct
   Integral package                     .... SHARK and LIBINT hybrid scheme
 Reset frequency        DirectResetFreq ....    20
 Integral Threshold     Thresh          ....  2.500e-11 Eh
 Primitive CutOff       TCut            ....  2.500e-12 Eh

Convergence Tolerance:
 Convergence Check Mode ConvCheckMode   .... Total+1el-Energy
 Convergence forced     ConvForced      .... 0
 Energy Change          TolE            ....  1.000e-08 Eh
 1-El. energy change                    ....  1.000e-05 Eh
 Orbital Gradient       TolG            ....  1.000e-05
 Orbital Rotation angle TolX            ....  1.000e-05
 DIIS Error             TolErr          ....  5.000e-07

------------------------------
INITIAL GUESS: MODEL POTENTIAL
------------------------------
Loading Hartree-Fock densities                     ... done
Atomic calculation to generate a density for atom 0 (C  with ECP)
  Multiplicity assumed   :    1
  Atomic configuration   : 1s2 2s2 2p2 
  Number of open shells  : 1
  Command: /home/aspe232/Project/Software/ORCA/6_0_1/build/orca ./output/oleic_acid/oleic_acid_atom6.inp "" > ./output/oleic_acid/oleic_acid_atom6.out
Returned from the atomic calculation with res=0
Atomic calculation to generate a density for atom 18 (O  with ECP)
  Multiplicity assumed   :    3
  Atomic configuration   : 1s2 2s2 2p4 
  Number of open shells  : 1
  Command: /home/aspe232/Project/Software/ORCA/6_0_1/build/orca ./output/oleic_acid/oleic_acid_atom8.inp "" > ./output/oleic_acid/oleic_acid_atom8.out
Returned from the atomic calculation with res=0
Calculating cut-offs                               ... done
Initializing the effective Hamiltonian             ... done
Setting up the integral package (SHARK)            ... done
Starting the Coulomb interaction                   ... done (   0.2 sec)
Making the grid                                    ... done (   1.6 sec)
Mapping shells                                     ... done
Starting the XC term evaluation                    ... done (   0.1 sec)
  promolecular density results
     # of electrons  =    157.990136718
     EX              =    -78.504845111
     EC              =     -6.329008330
     EX+EC           =    -84.833853441
Transforming the Hamiltonian                       ... done (   0.0 sec)
Diagonalizing the Hamiltonian                      ... done (   0.0 sec)
Back transforming the eigenvectors                 ... done (   0.0 sec)
Now organizing SCF variables                       ... done
                      ------------------
                      INITIAL GUESS DONE (   3.1 sec)
                      ------------------
             **** ENERGY FILE WAS UPDATED (./output/oleic_acid/oleic_acid.en.tmp) ****
Finished Guess after   4.5 sec
Maximum memory used throughout the entire GUESS-calculation: 49.8 MB


           ************************************************************
           *        Program running with 40 parallel MPI-processes    *
           *              working on a common directory               *
           ************************************************************

-------------------------------------------------------------------------------------------
                                      ORCA LEAN-SCF
                              memory conserving SCF solver
-------------------------------------------------------------------------------------------

----------------------------------------D-I-I-S--------------------------------------------
Iteration    Energy (Eh)           Delta-E    RMSDP     MaxDP     DIISErr   Damp  Time(sec)
-------------------------------------------------------------------------------------------
               ***  Starting incremental Fock matrix formation  ***
    1    -154.1958090784319211     0.00e+00  2.55e-03  8.64e-02  1.98e-01  0.700  11.6
    2    -154.5837817956675053    -3.88e-01  1.85e-03  5.60e-02  1.12e-01  0.700   8.5
                               ***Turning on AO-DIIS***
    3    -154.7813532518758848    -1.98e-01  9.17e-04  2.41e-02  5.93e-02  0.700   8.6
    4    -154.8974057539753630    -1.16e-01  1.91e-03  4.97e-02  3.81e-02  0.000   7.4
    5    -155.1422121303069162    -2.45e-01  1.79e-04  1.00e-02  5.47e-03  0.000   8.2
    6    -155.1428422433278911    -6.30e-04  8.86e-05  8.21e-03  6.56e-03  0.000   8.0
                              *** Initializing SOSCF ***
---------------------------------------S-O-S-C-F--------------------------------------
Iteration    Energy (Eh)           Delta-E    RMSDP     MaxDP     MaxGrad    Time(sec)
--------------------------------------------------------------------------------------
    7    -155.1429718763662322    -1.30e-04  4.60e-05  3.54e-03  2.78e-03     7.7
               *** Restarting incremental Fock matrix formation ***
    8    -155.1430274367077118    -5.56e-05  2.33e-05  1.12e-03  3.20e-04    11.7
    9    -155.1430335888236414    -6.15e-06  1.84e-05  1.25e-03  3.10e-04     9.7
   10    -155.1430352114253992    -1.62e-06  6.23e-06  4.29e-04  1.40e-04     9.4
   11    -155.1430356317347332    -4.20e-07  2.69e-06  1.32e-04  2.80e-05     9.4
   12    -155.1430356677572036    -3.60e-08  1.02e-06  7.45e-05  1.24e-05     8.5
   13    -155.1430357037454542    -3.60e-08  2.70e-07  1.91e-05  2.75e-06     8.1
   14    -155.1430357055317018    -1.79e-09  1.45e-07  5.33e-06  1.24e-06     6.2
                 **** Energy Check signals convergence ****

               *****************************************************
               *                     SUCCESS                       *
               *           SCF CONVERGED AFTER  14 CYCLES          *
               *****************************************************

Recomputing exchange energy using gridx3       ... done (   14.178 sec)
Old exchange energy                            :    -22.668829568 Eh
New exchange energy                            :    -22.668852223 Eh
Exchange energy change after final integration :     -0.000022655 Eh
Total energy after final integration           :   -155.143058360 Eh
             **** ENERGY FILE WAS UPDATED (./output/oleic_acid/oleic_acid.en.tmp) ****

----------------
TOTAL SCF ENERGY
----------------

Total Energy       :       -155.14305836037377 Eh           -4221.65724 eV

Components:
Nuclear Repulsion  :        843.32816042558727 Eh           22948.12591 eV
Electronic Energy  :       -998.47119613111897 Eh          -27169.78253 eV
One Electron Energy:      -1908.99503321130555 Eh          -51946.39576 eV
Two Electron Energy:        910.52383708018658 Eh           24776.61323 eV

Virial components:
Potential Energy   :       -276.48858202938413 Eh           -7523.63681 eV
Kinetic Energy     :        121.34552366901033 Eh            3301.97957 eV
Virial Ratio       :          2.27852312693093

DFT components:
N(Alpha)           :       59.000098319742 electrons
N(Beta)            :       59.000098319742 electrons
N(Total)           :      118.000196639483 electrons
E(X)               :      -23.964042175840 Eh       
E(C)               :       -4.415218308705 Eh       
E(XC)              :      -28.379260484544 Eh       

---------------
SCF CONVERGENCE
---------------

  Last Energy change         ...    1.7862e-09  Tolerance :   1.0000e-08
  Last MAX-Density change    ...    5.3344e-06  Tolerance :   1.0000e-07
  Last RMS-Density change    ...    1.4514e-07  Tolerance :   5.0000e-09
  Last DIIS Error            ...    2.7791e-03  Tolerance :   5.0000e-07
  Last Orbital Gradient      ...    1.2380e-06  Tolerance :   1.0000e-05
  Last Orbital Rotation      ...    2.7271e-06  Tolerance :   1.0000e-05


----------------
ORBITAL ENERGIES
----------------

  NO   OCC          E(Eh)            E(eV) 
   0   2.0000      -1.209281       -32.9062 
   1   2.0000      -1.117305       -30.4034 
   2   2.0000      -0.962526       -26.1917 
   3   2.0000      -0.953137       -25.9362 
   4   2.0000      -0.942042       -25.6343 
   5   2.0000      -0.927057       -25.2265 
   6   2.0000      -0.905789       -24.6478 
   7   2.0000      -0.884666       -24.0730 
   8   2.0000      -0.859243       -23.3812 
   9   2.0000      -0.835225       -22.7276 
  10   2.0000      -0.812549       -22.1106 
  11   2.0000      -0.784428       -21.3454 
  12   2.0000      -0.766403       -20.8549 
  13   2.0000      -0.741400       -20.1745 
  14   2.0000      -0.732085       -19.9210 
  15   2.0000      -0.713367       -19.4117 
  16   2.0000      -0.692582       -18.8461 
  17   2.0000      -0.671218       -18.2648 
  18   2.0000      -0.668824       -18.1996 
  19   2.0000      -0.653289       -17.7769 
  20   2.0000      -0.629888       -17.1401 
  21   2.0000      -0.604530       -16.4501 
  22   2.0000      -0.589962       -16.0537 
  23   2.0000      -0.588611       -16.0169 
  24   2.0000      -0.583109       -15.8672 
  25   2.0000      -0.572324       -15.5737 
  26   2.0000      -0.562653       -15.3106 
  27   2.0000      -0.559204       -15.2167 
  28   2.0000      -0.551972       -15.0199 
  29   2.0000      -0.544529       -14.8174 
  30   2.0000      -0.540744       -14.7144 
  31   2.0000      -0.531439       -14.4612 
  32   2.0000      -0.525168       -14.2906 
  33   2.0000      -0.511538       -13.9197 
  34   2.0000      -0.509835       -13.8733 
  35   2.0000      -0.504027       -13.7153 
  36   2.0000      -0.502615       -13.6768 
  37   2.0000      -0.495683       -13.4882 
  38   2.0000      -0.489400       -13.3172 
  39   2.0000      -0.479275       -13.0417 
  40   2.0000      -0.470168       -12.7939 
  41   2.0000      -0.469664       -12.7802 
  42   2.0000      -0.461379       -12.5548 
  43   2.0000      -0.458459       -12.4753 
  44   2.0000      -0.452085       -12.3019 
  45   2.0000      -0.446360       -12.1461 
  46   2.0000      -0.437868       -11.9150 
  47   2.0000      -0.431443       -11.7402 
  48   2.0000      -0.425884       -11.5889 
  49   2.0000      -0.423782       -11.5317 
  50   2.0000      -0.420684       -11.4474 
  51   2.0000      -0.416292       -11.3279 
  52   2.0000      -0.415652       -11.3105 
  53   2.0000      -0.414185       -11.2705 
  54   2.0000      -0.410368       -11.1667 
  55   2.0000      -0.406618       -11.0646 
  56   2.0000      -0.394979       -10.7479 
  57   2.0000      -0.387466       -10.5435 
  58   2.0000      -0.329348        -8.9620 
  59   0.0000       0.059311         1.6139 
  60   0.0000       0.067045         1.8244 
  61   0.0000       0.082118         2.2345 
  62   0.0000       0.087038         2.3684 
  63   0.0000       0.090321         2.4578 
  64   0.0000       0.095138         2.5888 
[...]
151:   3151.29   0.010935   55.26  0.001083  (-0.014875  0.017203  0.023784)
152:   3151.92   0.002494   12.60  0.000247  (-0.009702 -0.006138  0.010730)
153:   3158.97   0.010575   53.44  0.001045  (-0.025017  0.019050 -0.007480)
154:   3171.58   0.002140   10.82  0.000211  ( 0.007458  0.012444  0.000330)
155:   3181.32   0.001073    5.42  0.000105  ( 0.003249  0.009664  0.001146)
156:   3182.55   0.002518   12.72  0.000247  (-0.008798  0.005527 -0.011788)
157:   3187.37   0.004279   21.63  0.000419  (-0.007083 -0.010834  0.015857)
158:   3190.10   0.004711   23.81  0.000461  ( 0.008022  0.004452 -0.019408)
159:   3194.91   0.004239   21.42  0.000414  ( 0.004188  0.013896  0.014263)
160:   3202.57   0.003826   19.34  0.000373  ( 0.003551  0.007911 -0.017252)
161:   3855.85   0.039511  199.67  0.003198  ( 0.055804  0.003819 -0.008311)

* The epsilon (eps) is given for a Dirac delta lineshape.
** The dipole moment derivative (T) already includes vibrational overlap.

The first frequency considered to be a vibration is 6
The total number of vibrations considered is 156


--------------------------
THERMOCHEMISTRY AT 298.15K
--------------------------

Temperature         ...   298.15 K
Pressure            ...     1.00 atm
Total Mass          ...   282.47 AMU
Quasi RRHO          ...     True
Cut-Off Frequency   ...     1.00 cm^-1

Throughout the following assumptions are being made:
  (1) The electronic state is orbitally nondegenerate
  (2) There are no thermally accessible electronically excited states
  (3) Hindered rotations indicated by low frequency modes are not
      treated as such but are treated as vibrations and this may
      cause some error
  (4) All equations used are the standard statistical mechanics
      equations for an ideal gas
  (5) All vibrations are strictly harmonic

freq.      20.66  E(vib)   ...       0.56 
freq.      24.90  E(vib)   ...       0.56 
freq.      31.59  E(vib)   ...       0.55 
freq.      36.42  E(vib)   ...       0.54 
freq.      43.79  E(vib)   ...       0.53 
freq.      46.82  E(vib)   ...       0.53 
freq.      55.17  E(vib)   ...       0.52 
freq.      66.75  E(vib)   ...       0.50 
freq.      71.78  E(vib)   ...       0.50 
freq.      95.75  E(vib)   ...       0.47 
freq.     103.16  E(vib)   ...       0.46 
freq.     130.43  E(vib)   ...       0.43 
freq.     134.80  E(vib)   ...       0.42 
freq.     152.24  E(vib)   ...       0.40 
freq.     178.73  E(vib)   ...       0.37 
freq.     184.15  E(vib)   ...       0.37 
freq.     204.34  E(vib)   ...       0.35 
freq.     224.45  E(vib)   ...       0.33 
freq.     258.97  E(vib)   ...       0.30 
freq.     263.80  E(vib)   ...       0.29 
freq.     274.97  E(vib)   ...       0.28 
freq.     291.40  E(vib)   ...       0.27 
freq.     301.57  E(vib)   ...       0.26 
freq.     303.34  E(vib)   ...       0.26 
freq.     336.00  E(vib)   ...       0.24 
freq.     384.46  E(vib)   ...       0.20 
freq.     392.87  E(vib)   ...       0.20 
freq.     410.68  E(vib)   ...       0.19 
freq.     453.74  E(vib)   ...       0.16 
freq.     481.46  E(vib)   ...       0.15 
freq.     500.12  E(vib)   ...       0.14 
freq.     514.85  E(vib)   ...       0.13 
freq.     536.76  E(vib)   ...       0.12 
freq.     541.27  E(vib)   ...       0.12 
freq.     572.12  E(vib)   ...       0.11 
freq.     640.75  E(vib)   ...       0.09 
freq.     693.84  E(vib)   ...       0.07 
freq.     736.80  E(vib)   ...       0.06 
freq.     746.45  E(vib)   ...       0.06 
freq.     750.68  E(vib)   ...       0.06 
freq.     788.66  E(vib)   ...       0.05 
freq.     794.23  E(vib)   ...       0.05 
freq.     821.88  E(vib)   ...       0.05 
freq.     835.02  E(vib)   ...       0.04 
freq.     854.20  E(vib)   ...       0.04 
freq.     872.09  E(vib)   ...       0.04 
freq.     886.22  E(vib)   ...       0.04 
freq.     890.30  E(vib)   ...       0.04 
freq.     903.87  E(vib)   ...       0.03 
freq.     932.04  E(vib)   ...       0.03 
freq.     941.78  E(vib)   ...       0.03 
freq.     957.66  E(vib)   ...       0.03 
freq.     980.87  E(vib)   ...       0.02 
freq.     994.16  E(vib)   ...       0.02 
freq.     997.12  E(vib)   ...       0.02 
freq.    1006.30  E(vib)   ...       0.02 
freq.    1017.68  E(vib)   ...       0.02 
freq.    1030.47  E(vib)   ...       0.02 
freq.    1053.01  E(vib)   ...       0.02 
freq.    1060.59  E(vib)   ...       0.02 
freq.    1080.28  E(vib)   ...       0.02 
freq.    1088.44  E(vib)   ...       0.02 
freq.    1104.66  E(vib)   ...       0.02 
freq.    1115.94  E(vib)   ...       0.01 
freq.    1128.24  E(vib)   ...       0.01 
freq.    1141.00  E(vib)   ...       0.01 
freq.    1149.91  E(vib)   ...       0.01 
freq.    1157.16  E(vib)   ...       0.01 
freq.    1163.01  E(vib)   ...       0.01 
freq.    1163.32  E(vib)   ...       0.01 
freq.    1172.03  E(vib)   ...       0.01 
freq.    1197.78  E(vib)   ...       0.01 
freq.    1211.33  E(vib)   ...       0.01 
freq.    1213.58  E(vib)   ...       0.01 
freq.    1220.78  E(vib)   ...       0.01 
freq.    1239.83  E(vib)   ...       0.01 
freq.    1258.21  E(vib)   ...       0.01 
freq.    1287.87  E(vib)   ...       0.01 
freq.    1288.71  E(vib)   ...       0.01 
freq.    1302.05  E(vib)   ...       0.01 
freq.    1305.16  E(vib)   ...       0.01 
freq.    1325.20  E(vib)   ...       0.01 
freq.    1334.92  E(vib)   ...       0.01 
freq.    1339.43  E(vib)   ...       0.01 
freq.    1349.40  E(vib)   ...       0.01 
freq.    1355.85  E(vib)   ...       0.01 
freq.    1356.29  E(vib)   ...       0.01 
freq.    1361.28  E(vib)   ...       0.01 
freq.    1368.86  E(vib)   ...       0.01 
freq.    1374.96  E(vib)   ...       0.01 
freq.    1382.09  E(vib)   ...       0.01 
freq.    1394.57  E(vib)   ...       0.00 
freq.    1402.25  E(vib)   ...       0.00 
freq.    1409.45  E(vib)   ...       0.00 
freq.    1420.00  E(vib)   ...       0.00 
freq.    1424.93  E(vib)   ...       0.00 
freq.    1431.84  E(vib)   ...       0.00 
freq.    1435.23  E(vib)   ...       0.00 
freq.    1437.18  E(vib)   ...       0.00 
freq.    1444.31  E(vib)   ...       0.00 
freq.    1451.02  E(vib)   ...       0.00 
freq.    1460.01  E(vib)   ...       0.00 
freq.    1468.22  E(vib)   ...       0.00 
freq.    1474.65  E(vib)   ...       0.00 
freq.    1496.75  E(vib)   ...       0.00 
freq.    1507.03  E(vib)   ...       0.00 
freq.    1510.38  E(vib)   ...       0.00 
freq.    1514.32  E(vib)   ...       0.00 
freq.    1519.40  E(vib)   ...       0.00 
freq.    1519.50  E(vib)   ...       0.00 
freq.    1522.18  E(vib)   ...       0.00 
freq.    1523.70  E(vib)   ...       0.00 
freq.    1524.11  E(vib)   ...       0.00 
freq.    1527.42  E(vib)   ...       0.00 
freq.    1527.97  E(vib)   ...       0.00 
freq.    1529.05  E(vib)   ...       0.00 
freq.    1534.61  E(vib)   ...       0.00 
freq.    1539.33  E(vib)   ...       0.00 
freq.    1542.93  E(vib)   ...       0.00 
freq.    1546.96  E(vib)   ...       0.00 
freq.    1800.00  E(vib)   ...       0.00 
freq.    1883.29  E(vib)   ...       0.00 
freq.    3069.30  E(vib)   ...       0.00 
freq.    3076.62  E(vib)   ...       0.00 
freq.    3079.76  E(vib)   ...       0.00 
freq.    3082.29  E(vib)   ...       0.00 
freq.    3083.86  E(vib)   ...       0.00 
freq.    3087.89  E(vib)   ...       0.00 
freq.    3089.10  E(vib)   ...       0.00 
freq.    3090.09  E(vib)   ...       0.00 
freq.    3092.65  E(vib)   ...       0.00 
freq.    3095.79  E(vib)   ...       0.00 
freq.    3098.03  E(vib)   ...       0.00 
freq.    3098.95  E(vib)   ...       0.00 
freq.    3101.26  E(vib)   ...       0.00 
freq.    3112.56  E(vib)   ...       0.00 
freq.    3120.79  E(vib)   ...       0.00 
freq.    3121.63  E(vib)   ...       0.00 
freq.    3124.11  E(vib)   ...       0.00 
freq.    3126.17  E(vib)   ...       0.00 
freq.    3131.04  E(vib)   ...       0.00 
freq.    3134.73  E(vib)   ...       0.00 
freq.    3137.32  E(vib)   ...       0.00 
freq.    3140.61  E(vib)   ...       0.00 
freq.    3147.73  E(vib)   ...       0.00 
freq.    3151.29  E(vib)   ...       0.00 
freq.    3151.92  E(vib)   ...       0.00 
freq.    3158.97  E(vib)   ...       0.00 
freq.    3171.58  E(vib)   ...       0.00 
freq.    3181.32  E(vib)   ...       0.00 
freq.    3182.55  E(vib)   ...       0.00 
freq.    3187.37  E(vib)   ...       0.00 
freq.    3190.10  E(vib)   ...       0.00 
freq.    3194.91  E(vib)   ...       0.00 
freq.    3202.57  E(vib)   ...       0.00 
freq.    3855.85  E(vib)   ...       0.00 

------------
INNER ENERGY
------------

The inner energy is: U= E(el) + E(ZPE) + E(vib) + E(rot) + E(trans)
    E(el)   - is the total energy from the electronic structure calculation
              = E(kin-el) + E(nuc-el) + E(el-el) + E(nuc-nuc)
    E(ZPE)  - the the zero temperature vibrational energy from the frequency calculation
    E(vib)  - the the finite temperature correction to E(ZPE) due to population
              of excited vibrational states
    E(rot)  - is the rotational thermal energy
    E(trans)- is the translational thermal energy

Summary of contributions to the inner energy U:
Electronic energy                ...   -155.24134486 Eh
Zero point energy                ...      0.50835453 Eh     319.00 kcal/mol
Thermal vibrational correction   ...      0.02100462 Eh      13.18 kcal/mol
Thermal rotational correction    ...      0.00141627 Eh       0.89 kcal/mol
Thermal translational correction ...      0.00141627 Eh       0.89 kcal/mol
-----------------------------------------------------------------------
Total thermal energy                   -154.70915316 Eh


Summary of corrections to the electronic energy:
(perhaps to be used in another calculation)
Total thermal correction                  0.02383717 Eh      14.96 kcal/mol
Non-thermal (ZPE) correction              0.50835453 Eh     319.00 kcal/mol
-----------------------------------------------------------------------
Total correction                          0.53219170 Eh     333.95 kcal/mol


--------
ENTHALPY
--------

The enthalpy is H = U + kB*T
                kB is Boltzmann's constant
Total thermal energy              ...   -154.70915316 Eh 
Thermal Enthalpy correction       ...      0.00094421 Eh       0.59 kcal/mol
-----------------------------------------------------------------------
Total Enthalpy                    ...   -154.70820895 Eh


Note: Only C1 symmetry has been detected, increase convergence thresholds 
      if your molecule has a higher symmetry. Symmetry factor of 1.0 is   
      used for the rotational entropy correction. 
 

Note: Rotational entropy computed according to Herzberg 
Infrared and Raman Spectra, Chapter V,1, Van Nostrand Reinhold, 1945 
Point Group:  C1, Symmetry Number:   1  
Rotational constants in cm-1:     0.011074     0.007240     0.005035 

Vibrational entropy computed according to the QRRHO of S. Grimme
Chem.Eur.J. 2012 18 9955 using a reference frequency of 100.0 cm-1


-------
ENTROPY
-------

The entropy contributions are T*S = T*(S(el)+S(vib)+S(rot)+S(trans))
     S(el)   - electronic entropy
     S(vib)  - vibrational entropy
     S(rot)  - rotational entropy
     S(trans)- translational entropy
The entropies will be listed as multiplied by the temperature to get
units of energy

Electronic entropy                ...      0.00000000 Eh      0.00 kcal/mol
Vibrational entropy               ...      0.03844447 Eh     24.12 kcal/mol
Rotational entropy                ...      0.01646121 Eh     10.33 kcal/mol
Translational entropy             ...      0.02034189 Eh     12.76 kcal/mol
-----------------------------------------------------------------------
Final entropy term                ...      0.07524757 Eh     47.22 kcal/mol

In case the symmetry of your molecule has not been determined correctly
or in case you have a reason to use a different symmetry number we print 
out the resulting rotational entropy values for sn=1,12:

 non-linear molecules -----------------------------------
|  sn= 1 | S(rot)=       0.01646121 Eh     10.33 kcal/mol|
|  sn= 2 | S(rot)=       0.01580675 Eh      9.92 kcal/mol|
|  sn= 3 | S(rot)=       0.01542392 Eh      9.68 kcal/mol|
|  sn= 4 | S(rot)=       0.01515230 Eh      9.51 kcal/mol|
|  sn= 5 | S(rot)=       0.01494161 Eh      9.38 kcal/mol|
|  sn= 6 | S(rot)=       0.01476946 Eh      9.27 kcal/mol|
|  sn= 7 | S(rot)=       0.01462392 Eh      9.18 kcal/mol|
|  sn= 8 | S(rot)=       0.01449784 Eh      9.10 kcal/mol|
|  sn= 9 | S(rot)=       0.01438663 Eh      9.03 kcal/mol|
|  sn=10 | S(rot)=       0.01428715 Eh      8.97 kcal/mol|
|  sn=11 | S(rot)=       0.01419716 Eh      8.91 kcal/mol|
|  sn=12 | S(rot)=       0.01411501 Eh      8.86 kcal/mol|
 linear molecules ---------------------------------------
|  Dinfh | S(rot)=       0.01032174 Eh      6.48 kcal/mol|
|  Cinfv | S(rot)=       0.01097620 Eh      6.89 kcal/mol|
 --------------------------------------------------------


-------------------
GIBBS FREE ENERGY
-------------------

The Gibbs free energy is G = H - T*S

Total enthalpy                    ...   -154.70820895 Eh 
Total entropy correction          ...     -0.07524757 Eh    -47.22 kcal/mol
-----------------------------------------------------------------------
Final Gibbs free energy         ...   -154.78345652 Eh

For completeness - the Gibbs free energy minus the electronic energy
G-E(el)                           ...      0.45788834 Eh    287.33 kcal/mol


Maximum memory used throughout the entire PROP-calculation: 439.5 MB

--------------------------------
SUGGESTED CITATIONS FOR THIS RUN
--------------------------------

Below you find a list of papers that are relevant to this ORCA run
We neither can nor want to force you to cite these papers, but we appreciate if you do
You receive ORCA, which is the product of decades of hard work by many enthusiastic individuals, for free
The only thing we kindly ask in return is that you cite our papers,
We deeply appreciate it, if you show your appreciation for ORCA by not just citing the generic ORCA reference.

Please note that relegating all ORCA citations to the supporting information does *not* help us.
SI sections are not indexed - citations you put there will not count into any citation statistics
But we need these citations in order to attract the funding resources that allow us to do what we are doing

Therefore, if you are a happy ORCA user, please consider citing a few of the papers listed below in the main body of your paper

In addition to the list printed below, the program has created the file ./output/oleic_acid/oleic_acid.bibtex that contains the list in bibtex format
You can import this file easily into all common literature databanks and citation aid programs


List of essential papers. We consider these as the minimum necessary citations

  1. Neese,F.
     Software update: the ORCA program system, version 5.0
     WIRES Comput. Molec. Sci., 2022 12(1)e1606
     doi.org/10.1002/wcms.1606
  2. Mueller,M.; Hansen,A.; Grimme,S.
     wB97X-3c: A composite range-separated hybrid DFT method with a molecule-optimized polarized valence double-zeta basis set
     J. Chem. Phys., 2023 158 014103
     doi.org/10.1063/5.0133026

List of papers to cite with high priority. The work reported in these papers was absolutely
necessary for this run to complete.
Our perspective: the developers of density functionals and basis sets usually get cited in chemistry papers
Good! But without the algorithms to do something with them, the functionals or basis sets would not do anything.
Hence, in our opinion, the algorithm design and method developments papers are equally worthy of getting cited

  1. Neese,F.
     An improvement of the resolution of the identity approximation for the formation of the Coulomb matrix
     J. Comp. Chem., 2003 24(14)1740-1747
     doi.org/10.1002/jcc.10318
  2. Neese,F.; Wennmohs,F.; Hansen,A.; Becker,U.
     Efficient, approximate and parallel Hartree-Fock and hybrid DFT calculations. A 'chain-of-spheres' algorithm for the Hartree-Fock exchange
     Chem. Phys., 2009 356(1-3)98-109
     doi.org/10.1016/j.chemphys.2008.10.036
  3. Bykov,D.; Petrenko,T.; Izsak,R.; Kossmann,S.; Becker,U.; Valeev,E.; Neese,F.
     Efficient implementation of the analytic second derivatives of Hartree-Fock and hybrid DFT energies: a detailed analysis of different approximations
     Molec. Phys., 2015 113 1961-1977
     doi.org/10.1080/00268976.2015.1025114
  4. Helmich-Paris,B.; de Souza,B.; Neese,F.; Izsák,R.
     An improved chain of spheres for exchange algorithm
     J. Chem. Phys., 2021 155 104109
     doi.org/doi: 10.1063/5.0058766.
  5. Neese,F.
     The SHARK Integral Generation and Digestion System
     J. Comp. Chem., 2022  1-16
     doi.org/10.1002/jcc.26942
  6. Caldeweyher,E.; Bannwarth,C.; Grimme,S.
     Extension of the D3 dispersion coefficient model
     J. Chem. Phys., 2017 147 034112
     doi.org/10.1063/1.4993215
  7. Caldeweyher,E.; Ehlert,S.; Hansen,A.; Neugebauer,H.; Spicher,S.; Bannwarth,C.; Grimme,S.
     A generally applicable atomic-charge dependent London dispersion correction
     J. Chem. Phys., 2019 150 154122
     doi.org/10.1063/1.5090222
  8. Caldeweyher,E.; Mewes,J.; Ehlert,S.; Grimme,S.
     Extension and evaluation of the D4 London-dispersion model for periodic systems
     Phys. Chem. Chem. Phys., 2020 22(16)8499-8512
     doi.org/10.1039/D0CP00502A
  9. Wittmann,L.; Gordiy,I.; Friede,M.; Helmich-Paris,B.; Grimme,S.; Hansen,A.; Bursch,M.
     Extension of the D3 and D4 London Dispersion Corrections to the full Actinides Series
     Phys. Chem. Chem. Phys., 2024 26(32)21379-21394
     doi.org/https://doi.org/10.1039/D4CP01514B 

List of suggested additional citations. These are papers that are important in the 'surrounding' of 
of this run, or papers that preceded the highly important papers. If you like your results we are grateful for a citation.

  1. Izsak,R.; Neese,F.
     An overlap fitted chain of spheres exchange method
     J. Chem. Phys., 2011 135 144105
     doi.org/10.1063/1.3646921
  2. Izsak,R.; Hansen,A.; Neese,F.
     The resolution of identity and chain of spheres approximations for the LPNO-CCSD singles Fock term
     Molec. Phys., 2012 110 2413-2417
     doi.org/10.1080/00268976.2012.687466
  3. Neese,F.
     The ORCA program system
     WIRES Comput. Molec. Sci., 2012 2(1)73-78
     doi.org/10.1002/wcms.81
  4. Izsak,R.; Neese,F.; Klopper,W.
     Robust fitting techniques in the chain of spheres approximation to the Fock exchange: The role of the complementary space
     J. Chem. Phys., 2013 139 
     doi.org/10.1063/1.4819264
  5. Neese,F.
     Software update: the ORCA program system, version 4.0
     WIRES Comput. Molec. Sci., 2018 8(1)1-6
     doi.org/10.1002/wcms.1327
  6. Neese,F.; Wennmohs,F.; Becker,U.; Riplinger,C.
     The ORCA quantum chemistry program package
     J. Chem. Phys., 2020 152 Art. No. L224108
     doi.org/10.1063/5.0004608

List of optional additional citations

  1. Neese,F.
     Approximate second-order SCF convergence for spin unrestricted wavefunctions
     Chem. Phys. Lett., 2000 325(1-3)93-98
     doi.org/10.1016/s0009-2614(00)00662-x

Timings for individual modules:

Sum of individual times          ...     9407.789 sec (= 156.796 min)
Startup calculation              ...      403.126 sec (=   6.719 min)   4.3 %
SCF iterations                   ...     6819.262 sec (= 113.654 min)  72.5 %
Property integrals               ...      375.234 sec (=   6.254 min)   4.0 %
SCF Response                     ...      227.233 sec (=   3.787 min)   2.4 %
Property calculations            ...      429.166 sec (=   7.153 min)   4.6 %
SCF Gradient evaluation          ...     1151.243 sec (=  19.187 min)  12.2 %
Geometry relaxation              ...        2.525 sec (=   0.042 min)   0.0 %
                             ****ORCA TERMINATED NORMALLY****
TOTAL RUN TIME: 0 days 2 hours 37 minutes 16 seconds 971 msec
