
                                 *****************
                                 * O   R   C   A *
                                 *****************

                                            #,                                       
                                            ###                                      
                                            ####                                     
                                            #####                                    
                                            ######                                   
                                           ########,                                 
                                     ,,################,,,,,                         
                               ,,#################################,,                 
                          ,,##########################################,,             
                       ,#########################################, ''#####,          
                    ,#############################################,,   '####,        
                  ,##################################################,,,,####,       
                ,###########''''           ''''###############################       
              ,#####''   ,,,,##########,,,,          '''####'''          '####       
            ,##' ,,,,###########################,,,                        '##       
           ' ,,###''''                  '''############,,,                           
         ,,##''                                '''############,,,,        ,,,,,,###''
      ,#''                                            '''#######################'''  
     '                                                          ''''####''''         
             ,#######,   #######,   ,#######,      ##                                
            ,#'     '#,  ##    ##  ,#'     '#,    #''#        ,####,   ,####,        
            ##       ##  ##   ,#'  ##            #'  '#       #'       #'  '#        
            ##       ##  #######   ##           ,######,      #####,   #    #        
            '#,     ,#'  ##    ##  '#,     ,#' ,#      #,     #,   #   #,  ,#        
             '#######'   ##     ##  '#######'  #'      '#     '####' # '####'        



                #########################################################
                #                        -***-                          #
                #          Department of theory and spectroscopy        #
                #                                                       #
                #                      Frank Neese                      #
                #                                                       #
                #     Directorship, Architecture, Infrastructure        #
                #                    SHARK, DRIVERS                     #
                #        Core code/Algorithms in most modules           #
                #                                                       #
                #        Max Planck Institute fuer Kohlenforschung      #
                #                Kaiser Wilhelm Platz 1                 #
                #                 D-45470 Muelheim/Ruhr                 #
                #                      Germany                          #
                #                                                       #
                #                  All rights reserved                  #
                #                        -***-                          #
                #########################################################


                         Program Version 6.0.1  -  RELEASE   -


 With contributions from (in alphabetic order):
[Max-Planck-Institut fuer Kohlenforschung]                               
  Daniel Aravena         : Magnetic Suceptibility                        
  Michael Atanasov       : Ab Initio Ligand Field Theory (pilot matlab implementation)
  Alexander A. Auer      : GIAO ZORA, VPT2 properties, NMR spectrum      
  Ute Becker             : All parallelization in ORCA, NUMFREQ, NUMCALC 
  Giovanni Bistoni       : ED, misc. LED, open-shell LED, HFLD           
  Martin Brehm           : Molecular dynamics                            
  Dmytro Bykov           : pre 5.0 version of the SCF Hessian            
  Marcos Casanova-Páez   : Triplet and SCS-CIS(D). UHF-(DLPNO)-IP/EA/STEOM-CCSD. UHF-CVS-IP/STEOM-CCSD   
  Vijay G. Chilkuri      : MRCI spin determinant printing, contributions to CSF-ICE 
  Pauline Colinet        : FMM embedding                                 
  Dipayan Datta          : RHF DLPNO-CCSD density                        
  Achintya Kumar Dutta   : EOM-CC, STEOM-CC                              
  Nicolas Foglia         : Exact transition moments, OPA infrastructure, MCD improvements    
  Dmitry Ganyushin       : Spin-Orbit,Spin-Spin,Magnetic field MRCI      
  Miquel Garcia-Rates    : C-PCM and meta-GGA Hessian, CCSD/C-PCM, Gaussian charge scheme 
  Tiago L. C. Gouveia    : GS-ROHF, GS-ROCIS                             
  Yang Guo               : DLPNO-NEVPT2, F12-NEVPT2, CIM, IAO-localization        
  Andreas Hansen         : Spin unrestricted coupled pair/coupled cluster methods 
  Ingolf Harden          : AUTO-CI MPn and infrastructure                
  Benjamin Helmich-Paris : MC-RPA, TRAH-(SCF,CASSCF), AVAS, COSX integrals, SCF dyn. polar. 
  Lee Huntington         : MR-EOM, pCC                                   
  Robert Izsak           : Overlap fitted RIJCOSX, COSX-SCS-MP3, EOM     
  Riya Kayal             : Wick's Theorem for AUTO-CI, AUTO-CI UHF-CCSDT 
  Emily Kempfer          : AUTO-CI, RHF CISDT and CCSDT                  
  Christian Kollmar      : KDIIS, OOCD, Brueckner-CCSD(T), CCSD density, CASPT2, CASPT2-K, improved NEVPT2 
  Axel Koslowski         : Symmetry handling                             
  Simone Kossmann        : meta-GGA functionals, TD-DFT gradient, OOMP2, (MP2 Hessian; deprecated post 5.0) 
  Lucas Lang             : DCDCAS                                        
  Marvin Lechner         : AUTO-CI (C++ implementation), FIC-MRCC        
  Spencer Leger          : CASSCF response                               
  Dagmar Lenk            : GEPOL surface, SMD, ORCA-2-JSON               
  Dimitrios Liakos       : Extrapolation schemes; Compound Job, initial MDCI parallelization 
  Dimitrios Manganas     : Further ROCIS development; embedding schemes. LFT, Crystal Embedding 
  Dimitrios Pantazis     : SARC Basis sets                               
  Anastasios Papadopoulos: AUTO-CI, single reference methods and gradients 
  Taras Petrenko         : pre 6.0 DFT Hessian and TD-DFT gradient, (ASA, deprecated), ECA, 1-Electron XAS/XES, NRVS 
  Peter Pinski           : DLPNO-MP2, DLPNO-MP2 Gradient                 
  Christoph Reimann      : Effective Core Potentials                     
  Marius Retegan         : Local ZFS, SOC                                
  Christoph Riplinger    : Optimizer, TS searches, QM/MM, DLPNO-CCSD(T), (RO)-DLPNO pert. Triples 
  Michael Roemelt        : Original ROCIS implementation                 
  Masaaki Saitow         : Open-shell DLPNO-CCSD energy and density      
  Barbara Sandhoefer     : DKH picture change effects                    
  Kantharuban Sivalingam : CASSCF convergence/infrastructure, NEVPT2 and variants, FIC-MRCI 
  Bernardo de Souza      : ESD, SOC TD-DFT                               
  Georgi L. Stoychev     : AutoAux, RI-MP2 NMR, DLPNO-MP2 response, X2C  
  Van Anh Tran           : RI-MP2 g-tensors                              
  Willem Van den Heuvel  : Paramagnetic NMR                              
  Zikuan Wang            : NOTCH, Electric field optimization            
  Frank Wennmohs         : Technical directorship and infrastructure     
  Hang Xu                : AUTO-CI-Response properties                   
                                                                         
[FACCTs GmbH]                                                            
  Markus Bursch, Miquel Garcia-Rates, Christoph Riplinger, Bernardo de Souza, Georgi L. Stoychev 
                                                                 
  APM, Basis sets (HGBS, AHGBS, def-TZVP (Ac-Lr), def2-XVPD (La-Lu)), CI-OPT, improved COSX, DLPNO-Multilevel,           
  DOCKER, DRACO, updates on ESD, GOAT, IRC, LR-CPCM, MBIS, meta-GGA TD-DFT gradient, ML-optimized integration grids, 
  MM, NACMEs, nearIR, NEB, NEB-TS, NL-DFT gradient (VV10), 2- and 3-layer-ONIOM, interface openCOSMO-RS, QMMM,   
  Crystal-QMMM, SF, symmetry and pop. for TD-DFT, r2SCAN hybrids, SOLVATOR                                   
                                                                         
[Other institutions]                                                     
  V. Asgeirsson          : NEB                                           
  Christoph Bannwarth    : sTDA-DFT, sTD-DFT, PBEh-3c, B97-3c, D3        
  Sebastian Ehlert       : rSCAN, r2SCAN, r2SCAN-3c, D4, dhf basis sets  
  Marvin Friede          : D4 for Fr, Ra, Ac-Lr                          
  Lars Goerigk           : TD-DFT with DH, B97 family of functionals     
  Stefan Grimme          : VdW corrections, initial TS optimization, DFT functionals, gCP, sTDA/sTD-DF 
  Waldemar Hujo          : DFT-NL                                        
  H. Jonsson             : NEB                                           
  Holger Kruse           : gCP                                           
  Marcel Mueller         : wB97X-3c, vDZP basis set                      
  Hagen Neugebauer       : wr2SCAN                                       
  Tobias Risthaus        : range-separated hybrid DFT                    
  Lukas Wittmann         : regularized MP2, r2SCAN double-hybrids, wr2SCAN        
                                                                         
We gratefully acknowledge several colleagues who have allowed us to      
interface, adapt or use parts of their codes:                            
  Ed Valeev, F. Pavosevic, A. Kumar             : LibInt (2-el integral package), F12 methods 
  Garnet Chan, S. Sharma, J. Yang, R. Olivares  : DMRG                   
  Ulf Ekstrom                                   : XCFun DFT Library      
  Mihaly Kallay                                 : mrcc  (arbitrary order and MRCC methods)
  Frank Weinhold                                : gennbo (NPA and NBO analysis)           
  Simon Mueller                                 : openCOSMO-RS                            
  Christopher J. Cramer and Donald G. Truhlar   : smd solvation model                     
  S Lehtola, MJT Oliveira, MAL Marques          : LibXC Library                           
  Liviu Ungur et al                             : ANISO software                          


 Your calculation uses the libint2 library for the computation of 2-el integrals
 For citations please refer to: http://libint.valeyev.net

 Your ORCA version has been built with support for libXC version: 6.2.2
 For citations please refer to: https://libxc.gitlab.io

 This ORCA versions uses:
   CBLAS   interface :  Fast vector & matrix operations
   LAPACKE interface :  Fast linear algebra routines
   SCALAPACK package :  Parallel linear algebra routines
   Shared memory     :  Shared parallel matrices
   BLAS/LAPACK       :  OpenBLAS 0.3.27  USE64BITINT DYNAMIC_ARCH NO_AFFINITY SkylakeX SINGLE_THREADED
        Core in use  :  SkylakeX
   Copyright (c) 2011-2014, The OpenBLAS Project


Your calculation utilizes the atom-pairwise dispersion correction
based on EEQ partial charges (D4)


================================================================================

cite the ECPs for C  [vDZP-ECP] as follows:
   B-Ne (ecp-2-mwb), Al-Ar (ecp-10-mwb), Ga-Kr (ecp-28-mwb), Y-Cd (ecp-28-mwb), In-Xe (ecp-46-mwb):
     A. Bergner, M. Dolg, W. Küchle, H. Stoll, and H. Preuß, Mol. Phys. 80, 1431 (1993)., T. Leininger, A. Berning, A. Nicklass, H. Stoll, H.-J. Werner, and H.-J.Flad, Chem. Phys. 217, 19 (1997).
   Na-Mg, K-Ca, Rb-Sr, Cs-Ba (CRENBL):
     L. Fernandez Pacios and P. A. Christiansen, J. Chem. Phys. 82, 2664 (1985)., M. M. Hurley, L. F. Pacios, P. A. Christiansen, R. B. Ross, and W. C. Ermler, J. Chem. Phys. 84, 6840 (1986)., L. A. LaJohn, P. A. Christiansen, R. B. Ross, T. Atashroo, and W. C. Ermler, J. Chem. Phys. 87, 2812 (1987)., R. B. Ross, J. M. Powers, T. Atashroo, W. C. Ermler, L. A. LaJohn, and P. A. Christiansen, J. Chem. Phys. 93, 6654 (1990). 
   Sc-Zn (ecp-10-mdf):
     M. Dolg, U. Wedig, H. Stoll, and H. Preuss, J. Chem. Phys. 86, 866 (1986). 
   Y-Cd (ecp-28-mwb), Hf-Hg (ecp-60-mwb):
     D. Andrae, U. Häußermann, M. Dolg, H. Stoll, and H. Preuß, Theor. Chim. Acta 77, 123 (1990). 
   La (ecp-46-mwb):
     M. Dolg, H. Stoll, and H. Preuss, J. Chem. Phys. 90, 1730 (1989)., M. Dolg, H. Stoll, and H. Preuss, Theor. Chim. Acta 85, 441 (1993).
   Ce-Lu (SBKJC-ecp):
     T. R. Cundari and W. J. Stevens, J. Chem. Phys. 98, 5555 (1993).
   Tl-Rn (ecp-78-mwb):
     W. Küchle, M. Dolg, H. Stoll, and H. Preuss, Mol. Phys. 74, 1245 (1991).

ECP parameters for C  [vDZP-ECP] have been obtained from:
MM, AH, SG, J. Chem. Phys. 158, 014103 (2023), 10.1063/5.0133026

----- Orbital basis set information -----
Your calculation utilizes the basis: vDZP
   Marcel Mueller, Andreas Hansen, Stefan Grimme 
   J. Chem. Phys. 158, 014103 (2023). DOI: 10.1063/5.0133026

----- AuxJ basis set information -----
Your calculation utilizes the auxiliary basis: def2/J
   F. Weigend, Phys. Chem. Chem. Phys. 8, 1057 (2006).

================================================================================
                                        WARNINGS
                       Please study these warnings very carefully!
================================================================================

WARNING: Frozen-Core approximation turned on, but there are no core electrons.
  ===> : Turning off frozen-core approximation


WARNING: Geometry Optimization
  ===> : Switching off AutoStart
         For restart on a previous wavefunction, please use MOREAD

================================================================================
                                       INPUT FILE
================================================================================
NAME = ./output/germacrene_d/germacrene_d.inp
|  1> ! wB97X-3c OPT FREQ TightSCF
|  2> %pal
|  3>   nprocs 40
|  4> end
|  5> * xyz 0 1
|  6> C     -1.795705    -2.910094     1.132471
|  7> C     -1.833596    -1.622631     0.345056
|  8> C     -2.629626    -0.630184     0.820519
|  9> C     -2.885384     0.726599     0.202165
| 10> C     -2.232674     1.865358     1.023234
| 11> C     -1.167693     2.591444     0.226361
| 12> C     -1.288927     3.896286    -0.033992
| 13> C     -0.055859     1.837539    -0.385353
| 14> C      0.429107     0.723735     0.170351
| 15> C      1.249342    -0.256990    -0.626844
| 16> C      0.524483    -1.629736    -0.640906
| 17> C     -0.999344    -1.551126    -0.930253
| 18> C      2.690862    -0.355382    -0.043337
| 19> C      3.550159    -1.382791    -0.800741
| 20> C      3.399815     1.010890    -0.075798
| 21> H     -1.368819    -2.721678     2.140358
| 22> H     -2.823250    -3.317894     1.241306
| 23> H     -1.175563    -3.678951     0.624874
| 24> H     -3.152272    -0.805647     1.758466
| 25> H     -3.986400     0.878520     0.215403
| 26> H     -2.614618     0.776280    -0.869521
| 27> H     -1.784140     1.484917     1.966484
| 28> H     -3.030093     2.574034     1.340395
| 29> H     -0.555015     4.413175    -0.640564
| 30> H     -2.117633     4.472419     0.357902
| 31> H      0.296223     2.146912    -1.363031
| 32> H      0.141441     0.441460     1.175504
| 33> H      1.326358     0.086090    -1.684460
| 34> H      0.980234    -2.250762    -1.442361
| 35> H      0.714363    -2.159825     0.317838
| 36> H     -1.222211    -0.673135    -1.563610
| 37> H     -1.282055    -2.428708    -1.551508
| 38> H      2.629392    -0.681279     1.019385
| 39> H      3.554342    -1.163057    -1.889946
| 40> H      4.597093    -1.363310    -0.429251
| 41> H      3.169199    -2.411896    -0.636220
| 42> H      4.433386     0.920871     0.321658
| 43> H      2.866276     1.747798     0.560283
| 44> H      3.448801     1.400748    -1.115252
| 45> *
| 46> 
| 47>                          ****END OF INPUT****
================================================================================

                       *****************************
                       * Geometry Optimization Run *
                       *****************************

Geometry optimization settings:
Update method            Update   .... BFGS
Choice of coordinates    CoordSys .... (2022) Redundant Internals
Initial Hessian          InHess   .... Almloef's Model
Max. no of cycles        MaxIter  .... 117

Convergence Tolerances:
Energy Change            TolE     ....  5.0000e-06 Eh
Max. Gradient            TolMAXG  ....  3.0000e-04 Eh/bohr
RMS Gradient             TolRMSG  ....  1.0000e-04 Eh/bohr
Max. Displacement        TolMAXD  ....  4.0000e-03 bohr
RMS Displacement         TolRMSD  ....  2.0000e-03 bohr
Strict Convergence                .... False

------------------------------------------------------------------------------
                        ORCA OPTIMIZATION COORDINATE SETUP
------------------------------------------------------------------------------

The optimization will be done in redundant internal coordinates (2022)
Making redundant internal coordinates   ...  (2022 redundants) done
Evaluating the initial hessian          ...  (Almloef) done
Evaluating the coordinates              ...  done
Calculating the B-matrix                .... done
Calculating the G-matrix                .... done
Diagonalizing the G-matrix              .... done
Small eigenvalue found = 1.155e-02
Small eigenvalue found = 1.413e-02
Small eigenvalue found = 1.978e-02
The first mode is                       ....   77
The number of degrees of freedom        ....  111

    -----------------------------------------------------------------
                    Redundant Internal Coordinates


    -----------------------------------------------------------------
         Definition                    Initial Value    Approx d2E/dq
    -----------------------------------------------------------------
      1. B(C   1,C   0)                  1.5096         0.402585   
      2. B(C   2,C   1)                  1.3582         0.702246   
      3. B(C   3,C   2)                  1.5128         0.397907   
      4. B(C   4,C   3)                  1.5482         0.349400   
      5. B(C   5,C   4)                  1.5154         0.394180   
      6. B(C   6,C   5)                  1.3361         0.761682   
      7. B(C   7,C   5)                  1.4761         0.455451   
      8. B(C   8,C   7)                  1.3359         0.762244   
      9. B(C   9,C   8)                  1.5067         0.406968   
     10. B(C  10,C   9)                  1.5524         0.344022   
     11. B(C  11,C  10)                  1.5530         0.343250   
     12. B(C  11,C   1)                  1.5256         0.379641   
     13. B(C  12,C   9)                  1.5582         0.336750   
     14. B(C  13,C  12)                  1.5387         0.361814   
     15. B(C  14,C  12)                  1.5396         0.360630   
     16. B(H  15,C   0)                  1.1107         0.333779   
     17. B(H  16,C   0)                  1.1109         0.333544   
     18. B(H  17,C   0)                  1.1106         0.333888   
     19. B(H  18,C   2)                  1.0880         0.362788   
     20. B(H  19,C   3)                  1.1115         0.332720   
     21. B(H  20,C   3)                  1.1065         0.338948   
     22. B(H  21,C   4)                  1.1116         0.332639   
     23. B(H  22,C   4)                  1.1130         0.330967   
     24. B(H  23,C   6)                  1.0834         0.368953   
     25. B(H  24,C   6)                  1.0827         0.369872   
     26. B(H  25,C   7)                  1.0842         0.367831   
     27. B(H  26,C   8)                  1.0829         0.369559   
     28. B(H  27,C   9)                  1.1145         0.329064   
     29. B(H  28,C  10)                  1.1116         0.332598   
     30. B(H  29,C  10)                  1.1119         0.332309   
     31. B(H  30,C  11)                  1.1053         0.340423   
     32. B(H  31,C  11)                  1.1118         0.332422   
     33. B(H  32,C  12)                  1.1133         0.330598   
     34. B(H  33,C  13)                  1.1112         0.333173   
     35. B(H  34,C  13)                  1.1111         0.333290   
     36. B(H  35,C  13)                  1.1096         0.335059   
     37. B(H  36,C  14)                  1.1110         0.333352   
     38. B(H  37,C  14)                  1.1101         0.334482   
     39. B(H  38,C  14)                  1.1112         0.333071   
     40. A(C   1,C   0,H  15)          109.7731         0.324259   
     41. A(H  15,C   0,H  16)          109.2019         0.283991   
     42. A(H  16,C   0,H  17)          107.8877         0.284005   
     43. A(C   1,C   0,H  16)          109.9355         0.324222   
     44. A(C   1,C   0,H  17)          111.4713         0.324277   
     45. A(H  15,C   0,H  17)          108.5171         0.284037   
     46. A(C   0,C   1,C   2)          117.0835         0.410885   
     47. A(C   2,C   1,C  11)          125.3719         0.406638   
     48. A(C   0,C   1,C  11)          117.5331         0.369054   
     49. A(C   3,C   2,H  18)          114.5699         0.328106   
     50. A(C   1,C   2,C   3)          127.6865         0.410035   
     51. A(C   1,C   2,H  18)          117.7428         0.360913   
     52. A(C   2,C   3,C   4)          111.8157         0.363116   
     53. A(C   2,C   3,H  19)          106.5692         0.323469   
     54. A(C   4,C   3,H  19)          108.1048         0.316671   
     55. A(H  19,C   3,H  20)          104.3470         0.284561   
     56. A(C   4,C   3,H  20)          112.1768         0.317628   
     57. A(C   2,C   3,H  20)          113.2527         0.324456   
     58. A(C   5,C   4,H  22)          110.3827         0.322691   
     59. A(C   3,C   4,H  22)          108.5067         0.316399   
     60. A(H  21,C   4,H  22)          105.3799         0.283498   
     61. A(C   3,C   4,H  21)          111.6168         0.316658   
     62. A(C   5,C   4,H  21)          109.0643         0.322957   
     63. A(C   3,C   4,C   5)          111.7052         0.362532   
     64. A(C   6,C   5,C   7)          119.1048         0.426143   
     65. A(C   4,C   5,C   7)          120.1700         0.379445   
     66. A(C   4,C   5,C   6)          120.4405         0.415297   
     67. A(H  23,C   6,H  24)          117.8576         0.293186   
     68. A(C   5,C   6,H  24)          121.2385         0.367174   
     69. A(C   5,C   6,H  23)          120.9028         0.367017   
     70. A(C   8,C   7,H  25)          119.6782         0.366872   
     71. A(C   5,C   7,H  25)          118.2010         0.336300   
     72. A(C   5,C   7,C   8)          121.7969         0.426200   
     73. A(C   9,C   8,H  26)          117.7777         0.330336   
     74. A(C   7,C   8,H  26)          120.4640         0.367167   
     75. A(C   7,C   8,C   9)          121.3484         0.417718   
     76. A(C   8,C   9,C  12)          110.2785         0.362226   
     77. A(C  12,C   9,H  27)          108.1105         0.314214   
     78. A(C  10,C   9,H  27)          107.2093         0.315306   
     79. A(C   8,C   9,H  27)          109.8363         0.324079   
     80. A(C   8,C   9,C  10)          109.0369         0.363551   
     81. A(C  10,C   9,C  12)          112.3026         0.352030   
     82. A(C  11,C  10,H  29)          110.6310         0.315694   
     83. A(H  28,C  10,H  29)          106.5782         0.283671   
     84. A(C   9,C  10,C  11)          114.5233         0.353171   
     85. A(C   9,C  10,H  29)          109.5133         0.315809   
     86. A(C  11,C  10,H  28)          107.2311         0.315739   
     87. A(C   9,C  10,H  28)          108.0051         0.315854   
     88. A(C   1,C  11,C  10)          112.2363         0.359127   
     89. A(H  30,C  11,H  31)          104.8060         0.284714   
     90. A(C  10,C  11,H  31)          108.2799         0.315711   
     91. A(C   1,C  11,H  31)          106.9218         0.320942   
     92. A(C  10,C  11,H  30)          110.1701         0.316935   
     93. A(C   1,C  11,H  30)          113.9523         0.322194   
     94. A(C  14,C  12,H  32)          107.7783         0.317975   
     95. A(C  13,C  12,H  32)          107.7736         0.318145   
     96. A(C   9,C  12,H  32)          108.9575         0.314452   
     97. A(C  13,C  12,C  14)          108.9658         0.359207   
     98. A(C   9,C  12,C  14)          111.2264         0.354852   
     99. A(C   9,C  12,C  13)          111.9908         0.355049   
    100. A(H  33,C  13,H  34)          108.7075         0.283877   
    101. A(C  12,C  13,H  34)          110.4832         0.318566   
    102. A(C  12,C  13,H  33)          110.6446         0.318548   
    103. A(H  34,C  13,H  35)          106.8697         0.284127   
    104. A(H  33,C  13,H  35)          109.2709         0.284111   
    105. A(C  12,C  13,H  35)          110.7656         0.318841   
    106. A(H  37,C  14,H  38)          108.9220         0.284021   
    107. A(H  36,C  14,H  38)          108.7869         0.283872   
    108. A(C  12,C  14,H  38)          110.5703         0.318361   
    109. A(H  36,C  14,H  37)          107.2131         0.284059   
    110. A(C  12,C  14,H  37)          110.8360         0.318581   
    111. A(C  12,C  14,H  36)          110.4223         0.318405   
    112. D(C  11,C   1,C   0,H  15)    117.4040         0.012021   
    113. D(C   2,C   1,C   0,H  15)    -63.7636         0.012021   
    114. D(C  11,C   1,C   0,H  16)   -122.4524         0.012021   
    115. D(C   2,C   1,C   0,H  16)     56.3800         0.012021   
    116. D(C   2,C   1,C   0,H  17)    175.9678         0.012021   
    117. D(C   3,C   2,C   1,C   0)   -177.5870         0.034751   
    118. D(H  18,C   2,C   1,C  11)   -178.5149         0.034751   
    119. D(C   3,C   2,C   1,C  11)      1.1432         0.034751   
    120. D(H  18,C   2,C   1,C   0)      2.7548         0.034751   
    121. D(H  20,C   3,C   2,C   1)     18.1203         0.011756   
    122. D(H  19,C   3,C   2,C   1)    132.2768         0.011756   
    123. D(C   4,C   3,C   2,H  18)     69.8699         0.011756   
    124. D(H  19,C   3,C   2,H  18)    -48.0559         0.011756   
    125. D(C   4,C   3,C   2,C   1)   -109.7975         0.011756   
    126. D(C   5,C   4,C   3,C   2)    116.7630         0.009839   
    127. D(H  21,C   4,C   3,H  20)   -134.1311         0.009839   
    128. D(H  21,C   4,C   3,H  19)    111.3624         0.009839   
    129. D(H  21,C   4,C   3,C   2)     -5.6410         0.009839   
    130. D(C   5,C   4,C   3,H  19)   -126.2336         0.009839   
    131. D(C   5,C   4,C   3,H  20)    -11.7271         0.009839   
    132. D(C   7,C   5,C   4,H  21)     69.1197         0.011547   
    133. D(C   7,C   5,C   4,C   3)    -54.7344         0.011547   
    134. D(C   6,C   5,C   4,H  22)     -1.7372         0.011547   
    135. D(C   6,C   5,C   4,H  21)   -117.0622         0.011547   
    136. D(C   6,C   5,C   4,C   3)    119.0836         0.011547   
    137. D(H  24,C   6,C   5,C   4)      3.1737         0.041500   
    138. D(H  23,C   6,C   5,C   7)     -3.3377         0.041500   
    139. D(H  23,C   6,C   5,C   4)   -177.2210         0.041500   
    140. D(H  24,C   6,C   5,C   7)    177.0571         0.041500   
    141. D(C   8,C   7,C   5,C   6)    154.8101         0.014134   
    142. D(C   8,C   7,C   5,C   4)    -31.2897         0.014134   
    143. D(H  25,C   7,C   5,C   6)    -31.7502         0.014134   
    144. D(H  25,C   7,C   5,C   4)    142.1500         0.014134   
    145. D(H  26,C   8,C   7,H  25)    175.5021         0.041567   
    146. D(H  26,C   8,C   7,C   5)    -11.1529         0.041567   
    147. D(C   9,C   8,C   7,H  25)    -12.0103         0.041567   
    148. D(C   9,C   8,C   7,C   5)    161.3348         0.041567   
    149. D(H  27,C   9,C   8,C   7)     -2.0295         0.012274   
    150. D(C  12,C   9,C   8,H  26)    -70.2965         0.012274   
    151. D(C  12,C   9,C   8,C   7)    117.0211         0.012274   
    152. D(C  10,C   9,C   8,H  26)     53.4467         0.012274   
    153. D(C  10,C   9,C   8,C   7)   -119.2358         0.012274   
    154. D(H  28,C  10,C   9,H  27)     45.9206         0.009563   
    155. D(H  28,C  10,C   9,C  12)    -72.6851         0.009563   
    156. D(H  28,C  10,C   9,C   8)    164.7800         0.009563   
    157. D(C  11,C  10,C   9,H  27)    -73.4622         0.009563   
    158. D(C  11,C  10,C   9,C  12)    167.9321         0.009563   
    159. D(C  11,C  10,C   9,C   8)     45.3972         0.009563   
    160. D(H  30,C  11,C  10,H  28)    -90.7137         0.009524   
    161. D(H  30,C  11,C  10,C   9)     29.1018         0.009524   
    162. D(C   1,C  11,C  10,H  29)     25.3108         0.009524   
    163. D(C   1,C  11,C  10,H  28)    141.1578         0.009524   
    164. D(C   1,C  11,C  10,C   9)    -99.0267         0.009524   
    165. D(H  31,C  11,C   1,C   0)     53.0562         0.010756   
    166. D(H  30,C  11,C   1,C   2)    -10.3639         0.010756   
    167. D(H  30,C  11,C   1,C   0)    168.3611         0.010756   
    168. D(C  10,C  11,C   1,C   2)    115.7385         0.010756   
    169. D(H  30,C  11,C  10,H  29)    153.4393         0.009524   
    170. D(C  10,C  11,C   1,C   0)    -65.5365         0.010756   
    171. D(C  14,C  12,C   9,C   8)    -59.6903         0.009198   
    172. D(C  13,C  12,C   9,H  27)    -61.7936         0.009198   
    173. D(C  13,C  12,C   9,C  10)     56.2801         0.009198   
    174. D(C  13,C  12,C   9,C   8)    178.1102         0.009198   
    175. D(C  14,C  12,C   9,H  27)     60.4059         0.009198   
    176. D(C  14,C  12,C   9,C  10)    178.4796         0.009198   
    177. D(H  34,C  13,C  12,H  32)    -65.5776         0.010495   
    178. D(H  34,C  13,C  12,C  14)     51.1152         0.010495   
    179. D(H  34,C  13,C  12,C   9)    174.5963         0.010495   
    180. D(H  33,C  13,C  12,H  32)    173.9835         0.010495   
    181. D(H  33,C  13,C  12,C  14)    -69.3237         0.010495   
    182. D(H  33,C  13,C  12,C   9)     54.1574         0.010495   
    183. D(H  37,C  14,C  12,H  32)    -56.7627         0.010431   
    184. D(H  37,C  14,C  12,C  13)   -173.4525         0.010431   
    185. D(H  37,C  14,C  12,C   9)     62.6127         0.010431   
    186. D(H  36,C  14,C  12,H  32)     61.8951         0.010431   
    187. D(H  36,C  14,C  12,C  13)    -54.7947         0.010431   
    188. D(H  36,C  14,C  12,C   9)   -178.7295         0.010431   
    -----------------------------------------------------------------

Number of atoms                         .... 39
Number of degrees of freedom            .... 188


         *************************************************************
         *                GEOMETRY OPTIMIZATION CYCLE   1            *
         *************************************************************
---------------------------------
CARTESIAN COORDINATES (ANGSTROEM)
---------------------------------
  C     -1.795705   -2.910094    1.132471
  C     -1.833596   -1.622631    0.345056
  C     -2.629626   -0.630184    0.820519
  C     -2.885384    0.726599    0.202165
  C     -2.232674    1.865358    1.023234
  C     -1.167693    2.591444    0.226361
  C     -1.288927    3.896286   -0.033992
  C     -0.055859    1.837539   -0.385353
  C      0.429107    0.723735    0.170351
  C      1.249342   -0.256990   -0.626844
  C      0.524483   -1.629736   -0.640906
  C     -0.999344   -1.551126   -0.930253
  C      2.690862   -0.355382   -0.043337
  C      3.550159   -1.382791   -0.800741
  C      3.399815    1.010890   -0.075798
  H     -1.368819   -2.721678    2.140358
  H     -2.823250   -3.317894    1.241306
  H     -1.175563   -3.678951    0.624874
  H     -3.152272   -0.805647    1.758466
  H     -3.986400    0.878520    0.215403
  H     -2.614618    0.776280   -0.869521
  H     -1.784140    1.484917    1.966484
  H     -3.030093    2.574034    1.340395
  H     -0.555015    4.413175   -0.640564
  H     -2.117633    4.472419    0.357902
  H      0.296223    2.146912   -1.363031
  H      0.141441    0.441460    1.175504
  H      1.326358    0.086090   -1.684460
  H      0.980234   -2.250762   -1.442361
  H      0.714363   -2.159825    0.317838
  H     -1.222211   -0.673135   -1.563610
  H     -1.282055   -2.428708   -1.551508
  H      2.629392   -0.681279    1.019385
  H      3.554342   -1.163057   -1.889946
  H      4.597093   -1.363310   -0.429251
  H      3.169199   -2.411896   -0.636220
  H      4.433386    0.920871    0.321658
  H      2.866276    1.747798    0.560283
  H      3.448801    1.400748   -1.115252

----------------------------
CARTESIAN COORDINATES (A.U.)
----------------------------
  NO LB      ZA    FRAG     MASS         X           Y           Z
   0 C     4.0000*   0    12.011   -3.393391   -5.499281    2.140060
   1 C     4.0000*   0    12.011   -3.464994   -3.066328    0.652061
   2 C     4.0000*   0    12.011   -4.969273   -1.190875    1.550556
   3 C     4.0000*   0    12.011   -5.452586    1.373073    0.382036
   4 C     4.0000*   0    12.011   -4.219142    3.525016    1.933632
   5 C     4.0000*   0    12.011   -2.206620    4.897119    0.427760
   6 C     4.0000*   0    12.011   -2.435719    7.362913   -0.064236
   7 C     4.0000*   0    12.011   -0.105558    3.472445   -0.728212
   8 C     4.0000*   0    12.011    0.810895    1.367661    0.321917
   9 C     4.0000*   0    12.011    2.360914   -0.485641   -1.184563
  10 C     4.0000*   0    12.011    0.991129   -3.079755   -1.211137
  11 C     4.0000*   0    12.011   -1.888486   -2.931203   -1.757923
  12 C     4.0000*   0    12.011    5.084992   -0.671575   -0.081895
  13 C     4.0000*   0    12.011    6.708828   -2.613096   -1.513181
  14 C     4.0000*   0    12.011    6.424719    1.910305   -0.143237
  15 H     1.0000    0     1.008   -2.586693   -5.143226    4.044690
  16 H     1.0000    0     1.008   -5.335169   -6.269911    2.345728
  17 H     1.0000    0     1.008   -2.221492   -6.952210    1.180841
  18 H     1.0000    0     1.008   -5.956931   -1.522452    3.323019
  19 H     1.0000    0     1.008   -7.533204    1.660162    0.407053
  20 H     1.0000    0     1.008   -4.940912    1.466957   -1.643157
  21 H     1.0000    0     1.008   -3.371536    2.806086    3.716116
  22 H     1.0000    0     1.008   -5.726046    4.864219    2.532979
  23 H     1.0000    0     1.008   -1.048826    8.339692   -1.210491
  24 H     1.0000    0     1.008   -4.001746    8.451647    0.676337
  25 H     1.0000    0     1.008    0.559780    4.057076   -2.575755
  26 H     1.0000    0     1.008    0.267285    0.834238    2.221381
  27 H     1.0000    0     1.008    2.506453    0.162687   -3.183168
  28 H     1.0000    0     1.008    1.852374   -4.253324   -2.725667
  29 H     1.0000    0     1.008    1.349950   -4.081478    0.600627
  30 H     1.0000    0     1.008   -2.309644   -1.272041   -2.954795
  31 H     1.0000    0     1.008   -2.422733   -4.589593   -2.931925
  32 H     1.0000    0     1.008    4.968831   -1.287431    1.926358
  33 H     1.0000    0     1.008    6.716733   -2.197859   -3.571480
  34 H     1.0000    0     1.008    8.687247   -2.576283   -0.811167
  35 H     1.0000    0     1.008    5.988918   -4.557823   -1.202282
  36 H     1.0000    0     1.008    8.377885    1.740194    0.607846
  37 H     1.0000    0     1.008    5.416477    3.302860    1.058781
  38 H     1.0000    0     1.008    6.517289    2.647030   -2.107521
* core charge reduced due to ECP

--------------------------------
INTERNAL COORDINATES (ANGSTROEM)
--------------------------------
 C      0   0   0     0.000000000000     0.00000000     0.00000000
 C      1   0   0     1.509642039185     0.00000000     0.00000000
 C      2   1   0     1.358189925260   117.08349067     0.00000000
 C      3   2   1     1.512823166457   127.68648470   182.41299229
 C      4   3   2     1.548210808302   111.81568910   250.20254294
 C      5   4   3     1.515385095573   111.70517737   116.76295739
 C      6   5   4     1.336074104355   120.44049972   119.08363505
 C      6   5   4     1.476056100010   120.17003743   305.26558522
 C      8   6   5     1.335873611981   121.79685066   328.71033775
 C      9   8   6     1.506694013022   121.34843699   161.33476437
 C     10   9   8     1.552433538108   109.03689711   240.76424965
 C      2   1   3     1.525615420088   117.53305147   181.16763093
 C     10   9   8     1.558249439311   110.27852178   117.02105455
 C     13  10   9     1.538707706716   111.99075971   178.11023958
 C     13  10   9     1.539599704701   111.22643969   300.30972260
 H      1   2   3     1.110661267363   109.77311400   296.23637585
 H      1   2   3     1.110853106513   109.93553017    56.37997747
 H      1   2   3     1.110572780606   111.47132589   175.96778354
 H      3   2   1     1.087975496275   117.74278102     2.75484291
 H      4   3   2     1.111526638071   106.56922464   132.27680064
 H      4   3   2     1.106477885506   113.25272801    18.12028286
 H      5   4   3     1.111592850884   111.61684216   354.35895076
 H      5   4   3     1.112964435397   108.50666559   238.67037071
 H      7   6   5     1.083388505223   120.90284975   182.77899763
 H      7   6   5     1.082711307487   121.23845366     3.17370465
 H      8   6   5     1.084217533310   118.20097802   142.15001540
 H      9   8   6     1.082942037502   120.46396701   348.84712046
 H     10   9   8     1.114534411363   109.83628377   357.97047348
 H     11  10   9     1.111626008918   108.00514215   164.77999344
 H     11  10   9     1.111862770245   109.51330317   280.46846456
 H     12   2   1     1.105295881300   113.95229326   168.36111732
 H     12   2   1     1.111770413022   106.92183648    53.05616698
 H     13  10   9     1.113267921389   108.95746185    58.97941783
 H     14  13  10     1.111156181763   110.64463613    54.15735757
 H     14  13  10     1.111060362814   110.48321077   174.59625518
 H     14  13  10     1.109619205884   110.76563936   292.82202589
 H     15  13  10     1.111010217927   110.42232625   181.27046897
 H     15  13  10     1.110088421499   110.83602586    62.61269862
 H     15  13  10     1.111239626038   110.57028214   301.72034523

---------------------------
INTERNAL COORDINATES (A.U.)
---------------------------
 C      0   0   0     0.000000000000     0.00000000     0.00000000
 C      1   0   0     2.852810014314     0.00000000     0.00000000
 C      2   1   0     2.566606996593   117.08349067     0.00000000
 C      3   2   1     2.858821473655   127.68648470   182.41299229
 C      4   3   2     2.925694425267   111.81568910   250.20254294
 C      5   4   3     2.863662818060   111.70517737   116.76295739
 C      6   5   4     2.524814151856   120.44049972   119.08363505
 C      6   5   4     2.789341787323   120.17003743   305.26558522
 C      8   6   5     2.524435276177   121.79685066   328.71033775
 C      9   8   6     2.847239052230   121.34843699   161.33476437
 C     10   9   8     2.933674228138   109.03689711   240.76424965
 C      2   1   3     2.882995329653   117.53305147   181.16763093
 C     10   9   8     2.944664688634   110.27852178   117.02105455
 C     13  10   9     2.907736165847   111.99075971   178.11023958
 C     13  10   9     2.909421797750   111.22643969   300.30972260
 H      1   2   3     2.098845622870   109.77311400   296.23637585
 H      1   2   3     2.099208146326   109.93553017    56.37997747
 H      1   2   3     2.098678407132   111.47132589   175.96778354
 H      3   2   1     2.055975728376   117.74278102     2.75484291
 H      4   3   2     2.100480936512   106.56922464   132.27680064
 H      4   3   2     2.090940176846   113.25272801    18.12028286
 H      5   4   3     2.100606060596   111.61684216   354.35895076
 H      5   4   3     2.103197979694   108.50666559   238.67037071
 H      7   6   5     2.047307571509   120.90284975   182.77899763
 H      7   6   5     2.046027853251   121.23845366     3.17370465
 H      8   6   5     2.048874207552   118.20097802   142.15001540
 H      9   8   6     2.046463869790   120.46396701   348.84712046
 H     10   9   8     2.106164804307   109.83628377   357.97047348
 H     11  10   9     2.100668720198   108.00514215   164.77999344
 H     11  10   9     2.101116134266   109.51330317   280.46846456
 H     12   2   1     2.088706512608   113.95229326   168.36111732
 H     12   2   1     2.100941604407   106.92183648    53.05616698
 H     13  10   9     2.103771485104   108.95746185    58.97941783
 H     14  13  10     2.099780875546   110.64463613    54.15735757
 H     14  13  10     2.099599803974   110.48321077   174.59625518
 H     14  13  10     2.096876412059   110.76563936   292.82202589
 H     15  13  10     2.099505043870   110.42232625   181.27046897
 H     15  13  10     2.097763101070   110.83602586    62.61269862
 H     15  13  10     2.099938562372   110.57028214   301.72034523

---------------------
BASIS SET INFORMATION
---------------------
There are 2 groups of distinct atoms

 Group   1 Type C   : 6s6p2d contracted to 2s2p1d pattern {42/42/2}
 Group   2 Type H   : 8s2p contracted to 2s1p pattern {53/2}

Atom   0C    basis set group =>   1
Atom   1C    basis set group =>   1
Atom   2C    basis set group =>   1
Atom   3C    basis set group =>   1
Atom   4C    basis set group =>   1
Atom   5C    basis set group =>   1
Atom   6C    basis set group =>   1
Atom   7C    basis set group =>   1
Atom   8C    basis set group =>   1
Atom   9C    basis set group =>   1
Atom  10C    basis set group =>   1
Atom  11C    basis set group =>   1
Atom  12C    basis set group =>   1
Atom  13C    basis set group =>   1
Atom  14C    basis set group =>   1
Atom  15H    basis set group =>   2
Atom  16H    basis set group =>   2
Atom  17H    basis set group =>   2
Atom  18H    basis set group =>   2
Atom  19H    basis set group =>   2
Atom  20H    basis set group =>   2
Atom  21H    basis set group =>   2
Atom  22H    basis set group =>   2
Atom  23H    basis set group =>   2
Atom  24H    basis set group =>   2
Atom  25H    basis set group =>   2
Atom  26H    basis set group =>   2
Atom  27H    basis set group =>   2
Atom  28H    basis set group =>   2
Atom  29H    basis set group =>   2
Atom  30H    basis set group =>   2
Atom  31H    basis set group =>   2
Atom  32H    basis set group =>   2
Atom  33H    basis set group =>   2
Atom  34H    basis set group =>   2
Atom  35H    basis set group =>   2
Atom  36H    basis set group =>   2
Atom  37H    basis set group =>   2
Atom  38H    basis set group =>   2
---------------------------------
AUXILIARY/J BASIS SET INFORMATION
---------------------------------
There are 2 groups of distinct atoms

 Group   1 Type C   : 12s5p4d2f1g contracted to 6s4p3d1f1g pattern {711111/2111/211/2/1}
 Group   2 Type H   : 5s2p1d contracted to 3s1p1d pattern {311/2/1}

Atom   0C    basis set group =>   1
Atom   1C    basis set group =>   1
Atom   2C    basis set group =>   1
Atom   3C    basis set group =>   1
Atom   4C    basis set group =>   1
Atom   5C    basis set group =>   1
Atom   6C    basis set group =>   1
Atom   7C    basis set group =>   1
Atom   8C    basis set group =>   1
Atom   9C    basis set group =>   1
Atom  10C    basis set group =>   1
Atom  11C    basis set group =>   1
Atom  12C    basis set group =>   1
Atom  13C    basis set group =>   1
Atom  14C    basis set group =>   1
Atom  15H    basis set group =>   2
Atom  16H    basis set group =>   2
Atom  17H    basis set group =>   2
Atom  18H    basis set group =>   2
Atom  19H    basis set group =>   2
Atom  20H    basis set group =>   2
Atom  21H    basis set group =>   2
Atom  22H    basis set group =>   2
Atom  23H    basis set group =>   2
Atom  24H    basis set group =>   2
Atom  25H    basis set group =>   2
Atom  26H    basis set group =>   2
Atom  27H    basis set group =>   2
Atom  28H    basis set group =>   2
Atom  29H    basis set group =>   2
Atom  30H    basis set group =>   2
Atom  31H    basis set group =>   2
Atom  32H    basis set group =>   2
Atom  33H    basis set group =>   2
Atom  34H    basis set group =>   2
Atom  35H    basis set group =>   2
Atom  36H    basis set group =>   2
Atom  37H    basis set group =>   2
Atom  38H    basis set group =>   2
-------------------------
ECP PARAMETER INFORMATION
-------------------------

 Group 1, Type C  ECP vDZP-ECP (replacing 2 core electrons, lmax=3)

Atom   0C    ECP group =>   1
Atom   1C    ECP group =>   1
Atom   2C    ECP group =>   1
Atom   3C    ECP group =>   1
Atom   4C    ECP group =>   1
Atom   5C    ECP group =>   1
Atom   6C    ECP group =>   1
Atom   7C    ECP group =>   1
Atom   8C    ECP group =>   1
Atom   9C    ECP group =>   1
Atom  10C    ECP group =>   1
Atom  11C    ECP group =>   1
Atom  12C    ECP group =>   1
Atom  13C    ECP group =>   1
Atom  14C    ECP group =>   1



           ************************************************************
           *        Program running with 40 parallel MPI-processes    *
           *              working on a common directory               *
           ************************************************************
------------------------------------------------------------------------------
                             ORCA STARTUP CALCULATIONS
                           -- RI-GTO INTEGRALS CHOSEN --
------------------------------------------------------------------------------
------------------------------------------------------------------------------
                   ___                                                        
                  /   \      - P O W E R E D   B Y -                         
                 /     \                                                     
                 |  |  |   _    _      __       _____    __    __             
                 |  |  |  | |  | |    /  \     |  _  \  |  |  /  |          
                  \  \/   | |  | |   /    \    | | | |  |  | /  /          
                 / \  \   | |__| |  /  /\  \   | |_| |  |  |/  /          
                |  |  |   |  __  | /  /__\  \  |    /   |      \           
                |  |  |   | |  | | |   __   |  |    \   |  |\   \          
                \     /   | |  | | |  |  |  |  | |\  \  |  | \   \       
                 \___/    |_|  |_| |__|  |__|  |_| \__\ |__|  \__/        
                                                                              
                      - O R C A' S   B I G   F R I E N D -                    
                                      &                                       
                       - I N T E G R A L  F E E D E R -                       
                                                                              
 v1 FN, 2020, v2 2021, v3 2022-2024                                           
------------------------------------------------------------------------------


----------------------
SHARK INTEGRAL PACKAGE
----------------------

Number of atoms                             ...     39
Number of basis functions                   ...    315
Number of shells                            ...    147
Maximum angular momentum                    ...      2
Integral batch strategy                     ... SHARK/LIBINT Hybrid
RI-J (if used) integral strategy            ... SPLIT-RIJ (Revised 2003 algorithm where possible)
Printlevel                                  ...      1
Contraction scheme used                     ... SEGMENTED contraction
Prescreening option                         ... SCHWARTZ
   Thresh                                   ... 2.500e-11
   Tcut                                     ... 2.500e-12
   Tpresel                                  ... 2.500e-12 
Coulomb Range Separation                    ... NOT USED
Exchange Range Separation                   ... Long Range
   Mu parameter                             ... 3.000e-01
   Scaling (regular/separated)              ... 1.670e-01 8.330e-01
Multipole approximations                    ... NOT USED
Finite Nucleus Model                        ... NOT USED
CABS basis                                  ... NOT available
Auxiliary Coulomb fitting basis             ... AVAILABLE
   # of basis functions in Aux-J            ...    999
   # of shells in Aux-J                     ...    345
   Maximum angular momentum in Aux-J        ...      4
Auxiliary J/K fitting basis                 ... NOT available
Auxiliary Correlation fitting basis         ... NOT available
Auxiliary 'external' fitting basis          ... NOT available

Checking pre-screening integrals            ... done (  0.0 sec) Dimension = 147
Check shell pair data                       ... done (  0.0 sec)
Shell pair information
Shell pair cut-off parameter TPreSel        ...   2.5e-12
Total number of shell pairs                 ...     10878
Shell pairs after pre-screening             ...     10765
Total number of primitive shell pairs       ...    102036
Primitive shell pairs kept                  ...     76162
          la=0 lb=0:   3066 shell pairs
          la=1 lb=0:   4163 shell pairs
          la=1 lb=1:   1437 shell pairs
          la=2 lb=0:   1170 shell pairs
          la=2 lb=1:    809 shell pairs
          la=2 lb=2:    120 shell pairs

Calculating one electron integrals          ... done (  0.0 sec)
Calculating ECP integrals                   ... done (  0.2 sec)
Calculating RI/J V-Matrix + Cholesky decomp.... done (  0.0 sec)
Calculating Nuclear repulsion               ... done (  0.0 sec) ENN=    552.041237174397 Eh

Diagonalization of the overlap matrix:
Smallest eigenvalue                        ... 9.761e-04
Time for diagonalization                   ...    0.014 sec
Threshold for overlap eigenvalues          ... 1.000e-07
Number of eigenvalues below threshold      ... 0
Time for construction of square roots      ...    0.008 sec
Total time needed                          ...    0.025 sec

-------------------
DFT GRID GENERATION
-------------------

General Integration Accuracy     IntAcc      ... 4.388
Radial Grid Type                 RadialGrid  ... OptM3 with GC (2021)
Angular Grid (max. ang.)         AngularGrid ... 4 (Lebedev-302)
Angular grid pruning method      GridPruning ... 4 (adaptive)
Weight generation scheme         WeightScheme... mBecke (2022)
Basis function cutoff            BFCut       ... 1.0000e-11
Integration weight cutoff        WCut        ... 1.0000e-14
Partially contracted basis set               ... off
Rotationally invariant grid construction     ... off
Angular grids for H and He will be reduced by one unit

Total number of grid points                  ...   165220
Total number of batches                      ...     2604
Average number of points per batch           ...       63
Average number of grid points per atom       ...     4236

--------------------
COSX GRID GENERATION
--------------------

GRIDX 1
-------
General Integration Accuracy     IntAcc      ... 3.816
Radial Grid Type                 RadialGrid  ... OptM3 with GC (2021)
Angular Grid (max. ang.)         AngularGrid ... 1 (Lebedev-50)
Angular grid pruning method      GridPruning ... 4 (adaptive)
Weight generation scheme         WeightScheme... mBecke (2022)
Basis function cutoff            BFCut       ... 1.0000e-11
Integration weight cutoff        WCut        ... 1.0000e-14
Partially contracted basis set               ... on
Rotationally invariant grid construction     ... off
Angular grids for H and He will be reduced by one unit

Total number of grid points                  ...    21098
Total number of batches                      ...      191
Average number of points per batch           ...      110
Average number of grid points per atom       ...      541
UseSFitting                                  ... on

GRIDX 2
-------
General Integration Accuracy     IntAcc      ... 4.020
Radial Grid Type                 RadialGrid  ... OptM3 with GC (2021)
Angular Grid (max. ang.)         AngularGrid ... 2 (Lebedev-110)
Angular grid pruning method      GridPruning ... 4 (adaptive)
Weight generation scheme         WeightScheme... mBecke (2022)
Basis function cutoff            BFCut       ... 1.0000e-11
Integration weight cutoff        WCut        ... 1.0000e-14
Partially contracted basis set               ... on
Rotationally invariant grid construction     ... off
Angular grids for H and He will be reduced by one unit

Total number of grid points                  ...    43714
Total number of batches                      ...      360
Average number of points per batch           ...      121
Average number of grid points per atom       ...     1121
UseSFitting                                  ... on

GRIDX 3
-------
General Integration Accuracy     IntAcc      ... 4.338
Radial Grid Type                 RadialGrid  ... OptM3 with GC (2021)
Angular Grid (max. ang.)         AngularGrid ... 3 (Lebedev-194)
Angular grid pruning method      GridPruning ... 4 (adaptive)
Weight generation scheme         WeightScheme... mBecke (2022)
Basis function cutoff            BFCut       ... 1.0000e-11
Integration weight cutoff        WCut        ... 1.0000e-14
Partially contracted basis set               ... on
Rotationally invariant grid construction     ... off
Angular grids for H and He will be reduced by one unit

Total number of grid points                  ...    94899
Total number of batches                      ...      762
Average number of points per batch           ...      124
Average number of grid points per atom       ...     2433
UseSFitting                                  ... on
Initializing property integral containers    ... done (  0.0 sec)

SHARK setup successfully completed in   5.3 seconds

Maximum memory used throughout the entire STARTUP-calculation: 51.5 MB


           ************************************************************
           *        Program running with 40 parallel MPI-processes    *
           *              working on a common directory               *
           ************************************************************
-------------------------------------------------------------------------------
                                 ORCA GUESS
                   Start orbitals & Density for SCF / CASSCF
-------------------------------------------------------------------------------

------------
SCF SETTINGS
------------
Hamiltonian:
 Density Functional     Method          .... DFT(GTOs)
 Exchange Functional    Exchange        .... WB97X-V
 Correlation Functional Correlation     .... WB97X-V
 Gradients option       PostSCFGGA      .... off
 Hybrid DFT is turned on
   Fraction HF Exchange ScalHFX         ....  0.167000
   Scaling of DF-GGA-X  ScalDFX         ....  0.000000
   Scaling of DF-GGA-C  ScalDFC         ....  1.000000
   Scaling of DF-LDA-C  ScalLDAC        ....  1.000000
   Perturbative correction              ....  0.000000
 Long-range corrected/Screened/Range-Separated Hybrid DFT is turned on
   Amount of maximum screened exact exchange              ....  0.833000
   Range separation parameter mu (erf(mu*r12)/r12)        ....  0.300000
   NL short-range parameter             ....  6.000000
   NL long-range parameter              ....  0.010000
 RI-approximation to the Coulomb term is turned on
   Number of AuxJ basis functions       .... 999
   RIJ-COSX (HFX calculated with COS-X)).... on


General Settings:
 Integral files         IntName         .... ./output/germacrene_d/germacrene_d
 Hartree-Fock type      HFTyp           .... RHF
 Total Charge           Charge          ....    0
 Multiplicity           Mult            ....    1
 Number of Electrons    NEL             ....   84
 Basis Dimension        Dim             ....  315
 Nuclear Repulsion      ENuc            ....    552.0412371744 Eh

Convergence Acceleration:
 AO-DIIS                CNVDIIS         .... on
   Start iteration      DIISMaxIt       ....    12
   Startup error        DIISStart       ....  0.200000
   # of expansion vecs  DIISMaxEq       ....     5
   Bias factor          DIISBfac        ....   1.050
   Max. coefficient     DIISMaxC        ....  10.000
 MO-DIIS                CNVKDIIS        .... off
 Trust-Rad. Augm. Hess. CNVTRAH         .... auto
   Auto Start mean grad. ratio tolernc. ....  1.125000
   Auto Start start iteration           ....    50
   Auto Start num. interpolation iter.  ....    10
   Max. Number of Micro iterations      ....    24
   Max. Number of Macro iterations      .... Maxiter - #DIIS iter
   Number of Davidson start vectors     ....     2
   Converg. threshold    (grad. norm)   ....   1.000e-05
   Grad. Scal. Fac. for Micro threshold ....   0.100
   Minimum threshold for Micro iter.    ....   1.000e-02
   NR start threshold (gradient norm)   ....   1.000e-04
   Initial trust radius                 ....   0.400
   Minimum AH scaling param. (alpha)    ....   1.000
   Maximum AH scaling param. (alpha)    .... 1000.000
   Quad. conv. algorithm                .... NR
   White noise on init. David. guess    .... on
   Maximum white noise                  ....   0.010
   Pseudo random numbers                .... off
   Inactive MOs                         .... canonical
   Orbital update algorithm             .... Taylor
   Preconditioner                       .... Diag
   Full preconditioner red. dimension   ....   250
 SOSCF                  CNVSOSCF        .... on
   Start iteration      SOSCFMaxIt      ....   150
   Startup grad/error   SOSCFStart      ....  0.003300
   Hessian update       SOSCFHessUp     .... L-BFGS
 Level Shifting         CNVShift        .... on
   Level shift para.    LevelShift      ....    0.2500
   Turn off err/grad.   ShiftErr        ....    0.0010
 Zerner damping         CNVZerner       .... off
 Static damping         CNVDamp         .... on
   Fraction old density DampFac         ....    0.7000
   Max. Damping (<1)    DampMax         ....    0.9800
   Min. Damping (>=0)   DampMin         ....    0.0000
   Turn off err/grad.   DampErr         ....    0.1000

SCF Procedure:
 Maximum # iterations   MaxIter         ....   125
 SCF integral mode      SCFMode         .... Direct
   Integral package                     .... SHARK and LIBINT hybrid scheme
 Reset frequency        DirectResetFreq ....    20
 Integral Threshold     Thresh          ....  2.500e-11 Eh
 Primitive CutOff       TCut            ....  2.500e-12 Eh

Convergence Tolerance:
 Convergence Check Mode ConvCheckMode   .... Total+1el-Energy
 Convergence forced     ConvForced      .... 0
 Energy Change          TolE            ....  1.000e-08 Eh
 1-El. energy change                    ....  1.000e-05 Eh
 Orbital Gradient       TolG            ....  1.000e-05
 Orbital Rotation angle TolX            ....  1.000e-05
 DIIS Error             TolErr          ....  5.000e-07

------------------------------
INITIAL GUESS: MODEL POTENTIAL
------------------------------
Loading Hartree-Fock densities                     ... done
Atomic calculation to generate a density for atom 0 (C  with ECP)
  Multiplicity assumed   :    1
  Atomic configuration   : 1s2 2s2 2p2 
  Number of open shells  : 1
  Command: /home/aspe232/Project/Software/ORCA/6_0_1/build/orca ./output/germacrene_d/germacrene_d_atom6.inp "" > ./output/germacrene_d/germacrene_d_atom6.out
Returned from the atomic calculation with res=0
Calculating cut-offs                               ... done
Initializing the effective Hamiltonian             ... done
Setting up the integral package (SHARK)            ... done
Starting the Coulomb interaction                   ... done (   0.1 sec)
Making the grid                                    ... done (   1.1 sec)
Mapping shells                                     ... done
Starting the XC term evaluation                    ... done (   0.1 sec)
  promolecular density results
     # of electrons  =    113.983731144
     EX              =    -55.343413361
     EC              =     -4.544794323
     EX+EC           =    -59.888207684
Transforming the Hamiltonian                       ... done (   0.0 sec)
Diagonalizing the Hamiltonian                      ... done (   0.0 sec)
Back transforming the eigenvectors                 ... done (   0.0 sec)
Now organizing SCF variables                       ... done
                      ------------------
                      INITIAL GUESS DONE (   2.1 sec)
                      ------------------
             **** ENERGY FILE WAS UPDATED (./output/germacrene_d/germacrene_d.en.tmp) ****
Finished Guess after   3.1 sec
Maximum memory used throughout the entire GUESS-calculation: 34.3 MB


           ************************************************************
           *        Program running with 40 parallel MPI-processes    *
           *              working on a common directory               *
           ************************************************************

-------------------------------------------------------------------------------------------
                                      ORCA LEAN-SCF
                              memory conserving SCF solver
-------------------------------------------------------------------------------------------

----------------------------------------D-I-I-S--------------------------------------------
Iteration    Energy (Eh)           Delta-E    RMSDP     MaxDP     DIISErr   Damp  Time(sec)
-------------------------------------------------------------------------------------------
               ***  Starting incremental Fock matrix formation  ***
    1    -99.1761939179144747     0.00e+00  3.37e-03  7.38e-02  1.88e-01  0.700   8.8
    2    -99.4371562989805398    -2.61e-01  2.48e-03  5.56e-02  1.13e-01  0.700   5.7
                               ***Turning on AO-DIIS***
    3    -99.5759007837152694    -1.39e-01  1.29e-03  3.18e-02  5.91e-02  0.700   5.3
    4    -99.6579023739921013    -8.20e-02  2.78e-03  6.51e-02  3.77e-02  0.000   5.6
    5    -99.8297582985763938    -1.72e-01  2.06e-04  6.42e-03  5.99e-03  0.000   5.8
                              *** Initializing SOSCF ***
---------------------------------------S-O-S-C-F--------------------------------------
Iteration    Energy (Eh)           Delta-E    RMSDP     MaxDP     MaxGrad    Time(sec)
--------------------------------------------------------------------------------------
    6    -99.8302263252245439    -4.68e-04  9.61e-05  1.64e-03  1.21e-03     6.2
               *** Restarting incremental Fock matrix formation ***
    7    -99.8302656826660950    -3.94e-05  5.65e-05  1.19e-03  5.20e-04     7.8
    8    -99.8302838716805354    -1.82e-05  3.80e-05  7.62e-04  4.22e-04     7.5
    9    -99.8302883768852780    -4.51e-06  1.25e-05  2.08e-04  1.18e-04     6.6
   10    -99.8302890149479936    -6.38e-07  2.45e-06  6.25e-05  2.55e-05     6.7
   11    -99.8302890201294986    -5.18e-09  7.54e-07  3.20e-05  9.22e-06     6.1
                 **** Energy Check signals convergence ****

               *****************************************************
               *                     SUCCESS                       *
               *           SCF CONVERGED AFTER  11 CYCLES          *
               *****************************************************

Recomputing exchange energy using gridx3       ... done (    9.277 sec)
Old exchange energy                            :    -15.869624464 Eh
New exchange energy                            :    -15.869658345 Eh
Exchange energy change after final integration :     -0.000033882 Eh
Total energy after final integration           :    -99.830322902 Eh
             **** ENERGY FILE WAS UPDATED (./output/germacrene_d/germacrene_d.en.tmp) ****

----------------
TOTAL SCF ENERGY
----------------

Total Energy       :        -99.83032290180435 Eh           -2716.52119 eV

Components:
Nuclear Repulsion  :        552.04123717439711 Eh           15021.80576 eV
Electronic Energy  :       -651.87152619452661 Eh          -17738.32603 eV
One Electron Energy:      -1242.85871458791553 Eh          -33819.90499 eV
Two Electron Energy:        590.98718839338892 Eh           16081.57897 eV

Virial components:
Potential Energy   :       -177.62238004522615 Eh           -4833.35068 eV
Kinetic Energy     :         77.79205714342180 Eh            2116.82949 eV
Virial Ratio       :          2.28329712013852

DFT components:
N(Alpha)           :       41.999945171146 electrons
N(Beta)            :       41.999945171146 electrons
N(Total)           :       83.999890342292 electrons
E(X)               :      -16.052727358048 Eh       
E(C)               :       -3.122866478368 Eh       
E(XC)              :      -19.175593836416 Eh       

---------------
SCF CONVERGENCE
---------------

  Last Energy change         ...    5.1815e-09  Tolerance :   1.0000e-08
  Last MAX-Density change    ...    3.1987e-05  Tolerance :   1.0000e-07
  Last RMS-Density change    ...    7.5426e-07  Tolerance :   5.0000e-09
  Last DIIS Error            ...    1.2055e-03  Tolerance :   5.0000e-07
  Last Orbital Gradient      ...    9.2226e-06  Tolerance :   1.0000e-05
  Last Orbital Rotation      ...    2.3016e-05  Tolerance :   1.0000e-05


----------------
ORBITAL ENERGIES
----------------

  NO   OCC          E(Eh)            E(eV) 
   0   2.0000      -0.982043       -26.7228 
   1   2.0000      -0.954768       -25.9806 
   2   2.0000      -0.946761       -25.7627 
   3   2.0000      -0.904622       -24.6160 
   4   2.0000      -0.872814       -23.7505 
   5   2.0000      -0.868010       -23.6198 
   6   2.0000      -0.810414       -22.0525 
   7   2.0000      -0.807393       -21.9703 
   8   2.0000      -0.799661       -21.7599 
   9   2.0000      -0.742553       -20.2059 
  10   2.0000      -0.726893       -19.7798 
  11   2.0000      -0.703247       -19.1363 
  12   2.0000      -0.677829       -18.4447 
  13   2.0000      -0.646008       -17.5788 
  14   2.0000      -0.631216       -17.1763 
  15   2.0000      -0.588455       -16.0127 
  16   2.0000      -0.586544       -15.9607 
  17   2.0000      -0.581912       -15.8346 
  18   2.0000      -0.558221       -15.1900 
  19   2.0000      -0.554746       -15.0954 
  20   2.0000      -0.541726       -14.7411 
  21   2.0000      -0.535381       -14.5685 
  22   2.0000      -0.526506       -14.3269 
  23   2.0000      -0.522144       -14.2083 
  24   2.0000      -0.505432       -13.7535 
  25   2.0000      -0.495556       -13.4848 
  26   2.0000      -0.493830       -13.4378 
  27   2.0000      -0.489854       -13.3296 
  28   2.0000      -0.485050       -13.1989 
  29   2.0000      -0.478165       -13.0115 
  30   2.0000      -0.464528       -12.6405 
  31   2.0000      -0.454909       -12.3787 
  32   2.0000      -0.446334       -12.1454 
  33   2.0000      -0.440963       -11.9992 
  34   2.0000      -0.431680       -11.7466 
  35   2.0000      -0.428917       -11.6714 
  36   2.0000      -0.424802       -11.5594 
  37   2.0000      -0.415044       -11.2939 
  38   2.0000      -0.406900       -11.0723 
  39   2.0000      -0.386058       -10.5052 
  40   2.0000      -0.332171        -9.0388 
  41   2.0000      -0.307508        -8.3677 
  42   0.0000       0.058299         1.5864 
  43   0.0000       0.080523         2.1911 
  44   0.0000       0.083973         2.2850 
  45   0.0000       0.092173         2.5082 
  46   0.0000       0.097479         2.6525 
  47   0.0000       0.106253         2.8913 
  48   0.0000       0.113410         3.0860 
  49   0.0000       0.116421         3.1680 
  50   0.0000       0.119501         3.2518 
  51   0.0000       0.127295         3.4639 
  52   0.0000       0.128665         3.5012 
*Only the first 10 virtual orbitals were printed.

                    ********************************
                    * MULLIKEN POPULATION ANALYSIS *
                    ********************************

-----------------------
MULLIKEN ATOMIC CHARGES
-----------------------
   0 C :   -0.096195
   1 C :   -0.062893
   2 C :   -0.014963
   3 C :   -0.073141
   4 C :   -0.073289
   5 C :   -0.086503
   6 C :   -0.022128
   7 C :   -0.002417
   8 C :    0.019152
   9 C :   -0.092740
  10 C :   -0.057275
  11 C :   -0.057932
  12 C :   -0.103949
  13 C :   -0.072566
  14 C :   -0.066433
  15 H :    0.051488
  16 H :    0.058916
  17 H :    0.034883
  18 H :    0.012684
  19 H :    0.046889
  20 H :    0.043119
  21 H :    0.047103
  22 H :    0.036774
  23 H :    0.020134
  24 H :    0.021188
  25 H :    0.020161
  26 H :    0.019210
  27 H :    0.031148
  28 H :    0.048479
  29 H :    0.031437
  30 H :    0.032766
  31 H :    0.045837
  32 H :    0.038923
  33 H :    0.033841
  34 H :    0.036393
  35 H :    0.032828
  36 H :    0.034234
  37 H :    0.053341
  38 H :    0.031496
Sum of atomic charges:   -0.0000000

--------------------------------
MULLIKEN REDUCED ORBITAL CHARGES
--------------------------------
  0 C s       :     0.957053  s :     0.957053
      pz      :     1.020027  p :     3.065072
      px      :     1.059469
      py      :     0.985576
      dz2     :     0.016020  d :     0.074070
      dxz     :     0.010231
      dyz     :     0.015470
      dx2y2   :     0.013105
      dxy     :     0.019245

  1 C s       :     1.087958  s :     1.087958
      pz      :     0.951931  p :     2.857214
      px      :     0.956975
      py      :     0.948308
      dz2     :     0.023612  d :     0.117720
      dxz     :     0.016755
      dyz     :     0.030625
      dx2y2   :     0.027520
      dxy     :     0.019208

  2 C s       :     1.039834  s :     1.039834
      pz      :     0.986550  p :     2.882776
      px      :     0.988014
      py      :     0.908212
      dz2     :     0.018326  d :     0.092352
      dxz     :     0.012761
      dyz     :     0.020318
      dx2y2   :     0.023328
      dxy     :     0.017619

  3 C s       :     1.000478  s :     1.000478
      pz      :     1.023318  p :     2.973963
      px      :     1.038711
      py      :     0.911934
      dz2     :     0.025951  d :     0.098700
      dxz     :     0.008339
      dyz     :     0.019374
      dx2y2   :     0.028248
      dxy     :     0.016788

  4 C s       :     0.998383  s :     0.998383
      pz      :     1.005872  p :     2.977021
      px      :     0.990438
      py      :     0.980710
      dz2     :     0.018806  d :     0.097885
      dxz     :     0.019150
      dyz     :     0.019986
      dx2y2   :     0.014007
      dxy     :     0.025936

  5 C s       :     1.056338  s :     1.056338
      pz      :     0.958222  p :     2.904830
      px      :     0.937540
      py      :     1.009068
      dz2     :     0.014306  d :     0.125335
      dxz     :     0.014893
      dyz     :     0.030122
      dx2y2   :     0.030807
      dxy     :     0.035208

  6 C s       :     0.985365  s :     0.985365
      pz      :     0.995794  p :     2.971107
      px      :     0.989680
      py      :     0.985633
      dz2     :     0.003694  d :     0.065656
      dxz     :     0.006679
      dyz     :     0.017997
      dx2y2   :     0.010625
      dxy     :     0.026662

  7 C s       :     1.002067  s :     1.002067
      pz      :     0.980477  p :     2.905290
      px      :     0.955691
      py      :     0.969121
      dz2     :     0.020311  d :     0.095059
      dxz     :     0.014959
      dyz     :     0.018982
      dx2y2   :     0.020741
      dxy     :     0.020066

  8 C s       :     1.035903  s :     1.035903
      pz      :     0.976195  p :     2.849432
      px      :     0.943995
      py      :     0.929242
      dz2     :     0.023617  d :     0.095513
      dxz     :     0.012944
      dyz     :     0.020537
      dx2y2   :     0.020845
      dxy     :     0.017571

  9 C s       :     1.042214  s :     1.042214
      pz      :     1.025699  p :     2.927156
      px      :     0.938386
      py      :     0.963071
      dz2     :     0.027186  d :     0.123370
      dxz     :     0.017719
      dyz     :     0.022819
      dx2y2   :     0.027052
      dxy     :     0.028594

 10 C s       :     1.008973  s :     1.008973
      pz      :     1.047808  p :     2.951459
      px      :     0.938790
      py      :     0.964861
      dz2     :     0.013491  d :     0.096843
      dxz     :     0.016215
      dyz     :     0.023334
      dx2y2   :     0.021239
      dxy     :     0.022564

 11 C s       :     0.990092  s :     0.990092
      pz      :     0.988824  p :     2.970193
      px      :     0.918452
      py      :     1.062917
      dz2     :     0.014066  d :     0.097647
      dxz     :     0.022257
      dyz     :     0.025198
      dx2y2   :     0.022315
      dxy     :     0.013811

 12 C s       :     1.058519  s :     1.058519
      pz      :     1.025346  p :     2.921717
      px      :     0.928125
      py      :     0.968246
      dz2     :     0.028861  d :     0.123714
      dxz     :     0.017358
      dyz     :     0.020394
      dx2y2   :     0.028201
      dxy     :     0.028900

 13 C s       :     0.962827  s :     0.962827
      pz      :     1.018190  p :     3.035636
      px      :     1.016698
      py      :     1.000747
      dz2     :     0.023991  d :     0.074103
      dxz     :     0.008785
      dyz     :     0.007617
      dx2y2   :     0.022470
      dxy     :     0.011240

 14 C s       :     0.962173  s :     0.962173
      pz      :     1.037508  p :     3.030703
      px      :     1.020085
      py      :     0.973109
      dz2     :     0.013700  d :     0.073558
      dxz     :     0.009122
      dyz     :     0.018392
      dx2y2   :     0.018218
      dxy     :     0.014125

 15 H s       :     0.904728  s :     0.904728
      pz      :     0.021483  p :     0.043784
      px      :     0.011948
      py      :     0.010352

 16 H s       :     0.897104  s :     0.897104
      pz      :     0.010381  p :     0.043980
      px      :     0.021550
      py      :     0.012048

 17 H s       :     0.921033  s :     0.921033
      pz      :     0.012662  p :     0.044084
      px      :     0.014488
      py      :     0.016933

 18 H s       :     0.939424  s :     0.939424
      pz      :     0.021610  p :     0.047892
      px      :     0.015622
      py      :     0.010660

 19 H s       :     0.910106  s :     0.910106
      pz      :     0.009534  p :     0.043005
      px      :     0.022455
      py      :     0.011016

 20 H s       :     0.912281  s :     0.912281
      pz      :     0.023037  p :     0.044600
      px      :     0.011282
      py      :     0.010281

 21 H s       :     0.909043  s :     0.909043
      pz      :     0.019675  p :     0.043854
      px      :     0.012481
      py      :     0.011698

 22 H s       :     0.920964  s :     0.920964
      pz      :     0.010319  p :     0.042262
      px      :     0.016795
      py      :     0.015148

 23 H s       :     0.929195  s :     0.929195
      pz      :     0.017990  p :     0.050671
      px      :     0.019255
      py      :     0.013427

 24 H s       :     0.927709  s :     0.927709
      pz      :     0.016031  p :     0.051103
      px      :     0.020776
      py      :     0.014296

 25 H s       :     0.930945  s :     0.930945
      pz      :     0.023440  p :     0.048893
      px      :     0.013472
      py      :     0.011981

 26 H s       :     0.932373  s :     0.932373
      pz      :     0.023910  p :     0.048417
      px      :     0.012606
      py      :     0.011901

 27 H s       :     0.929969  s :     0.929969
      pz      :     0.021362  p :     0.038882
      px      :     0.007783
      py      :     0.009737

 28 H s       :     0.909164  s :     0.909164
      pz      :     0.016577  p :     0.042357
      px      :     0.012114
      py      :     0.013666

 29 H s       :     0.926562  s :     0.926562
      pz      :     0.020236  p :     0.042002
      px      :     0.009456
      py      :     0.012310

 30 H s       :     0.922284  s :     0.922284
      pz      :     0.013882  p :     0.044950
      px      :     0.010746
      py      :     0.020322

 31 H s       :     0.911295  s :     0.911295
      pz      :     0.013537  p :     0.042867
      px      :     0.011163
      py      :     0.018168

 32 H s       :     0.921734  s :     0.921734
      pz      :     0.020973  p :     0.039343
      px      :     0.008297
      py      :     0.010073

 33 H s       :     0.923232  s :     0.923232
      pz      :     0.023072  p :     0.042926
      px      :     0.009696
      py      :     0.010159

 34 H s       :     0.920137  s :     0.920137
      pz      :     0.011231  p :     0.043471
      px      :     0.022080
      py      :     0.010160

 35 H s       :     0.922712  s :     0.922712
      pz      :     0.010383  p :     0.044460
      px      :     0.012232
      py      :     0.021845

 36 H s       :     0.922275  s :     0.922275
      pz      :     0.011697  p :     0.043492
      px      :     0.021719
      py      :     0.010076

 37 H s       :     0.902016  s :     0.902016
      pz      :     0.014140  p :     0.044644
      px      :     0.014127
      py      :     0.016377

 38 H s       :     0.925660  s :     0.925660
      pz      :     0.021556  p :     0.042844
      px      :     0.009858
      py      :     0.011429



                     *******************************
                     * LOEWDIN POPULATION ANALYSIS *
                     *******************************

----------------------
LOEWDIN ATOMIC CHARGES
----------------------
   0 C :   -0.121234
   1 C :   -0.048189
   2 C :   -0.057262
   3 C :   -0.084324
   4 C :   -0.073587
   5 C :   -0.054523
   6 C :   -0.075696
   7 C :   -0.044317
   8 C :   -0.012143
   9 C :   -0.069191
  10 C :   -0.071083
  11 C :   -0.078721
  12 C :   -0.078752
  13 C :   -0.118976
  14 C :   -0.115990
  15 H :    0.051126
  16 H :    0.055779
  17 H :    0.048299
  18 H :    0.036789
  19 H :    0.052037
  20 H :    0.049033
  21 H :    0.049612
  22 H :    0.054339
  23 H :    0.032682
  24 H :    0.030465
  25 H :    0.041471
  26 H :    0.039567
  27 H :    0.051061
  28 H :    0.047512
  29 H :    0.045932
  30 H :    0.047752
  31 H :    0.051597
  32 H :    0.046004
  33 H :    0.045026
  34 H :    0.047476
  35 H :    0.043562
  36 H :    0.045868
  37 H :    0.046974
  38 H :    0.044025

-------------------------------
LOEWDIN REDUCED ORBITAL CHARGES
-------------------------------
  0 C s       :     0.775911  s :     0.775911
      pz      :     1.039342  p :     3.106106
      px      :     1.067435
      py      :     0.999328
      dz2     :     0.053680  d :     0.239217
      dxz     :     0.032503
      dyz     :     0.048754
      dx2y2   :     0.041216
      dxy     :     0.063063

  1 C s       :     0.802777  s :     0.802777
      pz      :     0.947679  p :     2.872543
      px      :     0.935676
      py      :     0.989188
      dz2     :     0.074991  d :     0.372869
      dxz     :     0.057775
      dyz     :     0.092751
      dx2y2   :     0.081118
      dxy     :     0.066234

  2 C s       :     0.809017  s :     0.809017
      pz      :     1.002530  p :     2.946340
      px      :     0.964562
      py      :     0.979248
      dz2     :     0.059922  d :     0.301905
      dxz     :     0.044721
      dyz     :     0.062615
[...]
 81:   1513.01   0.000794    4.01  0.000164  (-0.000532  0.011411  0.005777)
 82:   1516.66   0.000196    0.99  0.000040  (-0.001555  0.005977 -0.001480)
 83:   1518.44   0.000364    1.84  0.000075  ( 0.000837 -0.001766  0.008430)
 84:   1523.12   0.001597    8.07  0.000327  (-0.002172  0.003086  0.017688)
 85:   1525.57   0.000827    4.18  0.000169  (-0.005559  0.000094 -0.011754)
 86:   1528.68   0.002435   12.31  0.000497  ( 0.020560 -0.008623  0.000234)
 87:   1533.18   0.005702   28.82  0.001161  (-0.009240 -0.007688 -0.031878)
 88:   1535.96   0.001633    8.25  0.000332  (-0.016637 -0.007418  0.000129)
 89:   1544.34   0.002612   13.20  0.000528  ( 0.012558 -0.006098  0.018244)
 90:   1741.35   0.005026   25.40  0.000901  ( 0.004011 -0.028825  0.007328)
 91:   1793.84   0.000905    4.57  0.000157  ( 0.006417 -0.010656 -0.001628)
 92:   1798.83   0.003448   17.43  0.000598  ( 0.002788 -0.024267  0.001265)
 93:   3064.64   0.000327    1.65  0.000033  (-0.000497 -0.003414  0.004624)
 94:   3076.70   0.006895   34.84  0.000699  ( 0.006445  0.006036 -0.024926)
 95:   3093.11   0.005123   25.89  0.000517  (-0.000051  0.021608  0.007069)
 96:   3096.34   0.004008   20.25  0.000404  ( 0.000131  0.002412  0.019952)
 97:   3096.80   0.007980   40.33  0.000804  ( 0.028245  0.001778 -0.001786)
 98:   3097.56   0.003878   19.60  0.000391  (-0.005930 -0.017917  0.005874)
 99:   3109.52   0.012422   62.77  0.001247  ( 0.011997 -0.033169 -0.001586)
100:   3111.29   0.005215   26.36  0.000523  ( 0.008142  0.004406  0.020914)
101:   3116.62   0.003211   16.23  0.000322  (-0.017259  0.001963  0.004450)
102:   3163.47   0.004728   23.89  0.000466  ( 0.011139 -0.005886 -0.017541)
103:   3169.49   0.003668   18.53  0.000361  (-0.015677  0.010556  0.001977)
104:   3176.06   0.002193   11.08  0.000215  ( 0.006564  0.011121  0.006979)
105:   3176.41   0.000129    0.65  0.000013  ( 0.000981 -0.003166 -0.001296)
106:   3177.11   0.003943   19.93  0.000387  ( 0.007821 -0.011846  0.013632)
107:   3180.35   0.009290   46.95  0.000912  ( 0.016077 -0.006502  0.024714)
108:   3182.70   0.000392    1.98  0.000038  ( 0.005736 -0.002162 -0.000928)
109:   3195.39   0.005306   26.81  0.000518  (-0.009537 -0.007361  0.019314)
110:   3199.96   0.003760   19.00  0.000367  (-0.010765 -0.015815  0.000793)
111:   3204.14   0.003011   15.21  0.000293  (-0.014176  0.007772  0.005643)
112:   3205.70   0.001379    6.97  0.000134  ( 0.007223 -0.006002 -0.006786)
113:   3207.02   0.004242   21.44  0.000413  (-0.014455  0.001179  0.014228)
114:   3208.58   0.001887    9.53  0.000183  ( 0.004592  0.009786 -0.008163)
115:   3230.49   0.001377    6.96  0.000133  (-0.003452 -0.001023  0.010955)
116:   3304.01   0.000978    4.94  0.000092  (-0.007794 -0.000268  0.005618)

* The epsilon (eps) is given for a Dirac delta lineshape.
** The dipole moment derivative (T) already includes vibrational overlap.

The first frequency considered to be a vibration is 6
The total number of vibrations considered is 111


--------------------------
THERMOCHEMISTRY AT 298.15K
--------------------------

Temperature         ...   298.15 K
Pressure            ...     1.00 atm
Total Mass          ...   204.36 AMU
Quasi RRHO          ...     True
Cut-Off Frequency   ...     1.00 cm^-1

Throughout the following assumptions are being made:
  (1) The electronic state is orbitally nondegenerate
  (2) There are no thermally accessible electronically excited states
  (3) Hindered rotations indicated by low frequency modes are not
      treated as such but are treated as vibrations and this may
      cause some error
  (4) All equations used are the standard statistical mechanics
      equations for an ideal gas
  (5) All vibrations are strictly harmonic

freq.      41.87  E(vib)   ...       0.53 
freq.      67.57  E(vib)   ...       0.50 
freq.      80.03  E(vib)   ...       0.49 
freq.      98.27  E(vib)   ...       0.46 
freq.     143.47  E(vib)   ...       0.41 
freq.     149.82  E(vib)   ...       0.40 
freq.     158.05  E(vib)   ...       0.40 
freq.     184.23  E(vib)   ...       0.37 
freq.     226.01  E(vib)   ...       0.33 
freq.     229.29  E(vib)   ...       0.32 
freq.     249.62  E(vib)   ...       0.31 
freq.     269.96  E(vib)   ...       0.29 
freq.     283.27  E(vib)   ...       0.28 
freq.     304.63  E(vib)   ...       0.26 
freq.     340.19  E(vib)   ...       0.23 
freq.     341.46  E(vib)   ...       0.23 
freq.     367.52  E(vib)   ...       0.21 
freq.     380.41  E(vib)   ...       0.21 
freq.     424.39  E(vib)   ...       0.18 
freq.     445.36  E(vib)   ...       0.17 
freq.     453.60  E(vib)   ...       0.16 
freq.     459.83  E(vib)   ...       0.16 
freq.     513.08  E(vib)   ...       0.13 
freq.     533.29  E(vib)   ...       0.13 
freq.     570.72  E(vib)   ...       0.11 
freq.     612.17  E(vib)   ...       0.10 
freq.     652.09  E(vib)   ...       0.08 
freq.     734.52  E(vib)   ...       0.06 
freq.     750.92  E(vib)   ...       0.06 
freq.     813.60  E(vib)   ...       0.05 
freq.     856.04  E(vib)   ...       0.04 
freq.     875.98  E(vib)   ...       0.04 
freq.     891.17  E(vib)   ...       0.04 
freq.     903.08  E(vib)   ...       0.03 
freq.     927.77  E(vib)   ...       0.03 
freq.     939.67  E(vib)   ...       0.03 
freq.     952.54  E(vib)   ...       0.03 
freq.     966.13  E(vib)   ...       0.03 
freq.     982.14  E(vib)   ...       0.02 
freq.     993.46  E(vib)   ...       0.02 
freq.    1007.65  E(vib)   ...       0.02 
freq.    1024.12  E(vib)   ...       0.02 
freq.    1027.00  E(vib)   ...       0.02 
freq.    1038.45  E(vib)   ...       0.02 
freq.    1053.83  E(vib)   ...       0.02 
freq.    1070.43  E(vib)   ...       0.02 
freq.    1088.61  E(vib)   ...       0.02 
freq.    1091.46  E(vib)   ...       0.02 
freq.    1133.69  E(vib)   ...       0.01 
freq.    1154.45  E(vib)   ...       0.01 
freq.    1175.92  E(vib)   ...       0.01 
freq.    1199.91  E(vib)   ...       0.01 
freq.    1214.25  E(vib)   ...       0.01 
freq.    1223.84  E(vib)   ...       0.01 
freq.    1238.29  E(vib)   ...       0.01 
freq.    1248.41  E(vib)   ...       0.01 
freq.    1275.89  E(vib)   ...       0.01 
freq.    1295.65  E(vib)   ...       0.01 
freq.    1309.19  E(vib)   ...       0.01 
freq.    1340.50  E(vib)   ...       0.01 
freq.    1348.82  E(vib)   ...       0.01 
freq.    1364.54  E(vib)   ...       0.01 
freq.    1373.61  E(vib)   ...       0.01 
freq.    1379.02  E(vib)   ...       0.01 
freq.    1383.16  E(vib)   ...       0.00 
freq.    1394.97  E(vib)   ...       0.00 
freq.    1407.72  E(vib)   ...       0.00 
freq.    1411.15  E(vib)   ...       0.00 
freq.    1426.34  E(vib)   ...       0.00 
freq.    1438.97  E(vib)   ...       0.00 
freq.    1441.34  E(vib)   ...       0.00 
freq.    1452.10  E(vib)   ...       0.00 
freq.    1453.31  E(vib)   ...       0.00 
freq.    1475.61  E(vib)   ...       0.00 
freq.    1505.12  E(vib)   ...       0.00 
freq.    1513.01  E(vib)   ...       0.00 
freq.    1516.66  E(vib)   ...       0.00 
freq.    1518.44  E(vib)   ...       0.00 
freq.    1523.12  E(vib)   ...       0.00 
freq.    1525.57  E(vib)   ...       0.00 
freq.    1528.68  E(vib)   ...       0.00 
freq.    1533.18  E(vib)   ...       0.00 
freq.    1535.96  E(vib)   ...       0.00 
freq.    1544.34  E(vib)   ...       0.00 
freq.    1741.35  E(vib)   ...       0.00 
freq.    1793.84  E(vib)   ...       0.00 
freq.    1798.83  E(vib)   ...       0.00 
freq.    3064.64  E(vib)   ...       0.00 
freq.    3076.70  E(vib)   ...       0.00 
freq.    3093.11  E(vib)   ...       0.00 
freq.    3096.34  E(vib)   ...       0.00 
freq.    3096.80  E(vib)   ...       0.00 
freq.    3097.56  E(vib)   ...       0.00 
freq.    3109.52  E(vib)   ...       0.00 
freq.    3111.29  E(vib)   ...       0.00 
freq.    3116.62  E(vib)   ...       0.00 
freq.    3163.47  E(vib)   ...       0.00 
freq.    3169.49  E(vib)   ...       0.00 
freq.    3176.06  E(vib)   ...       0.00 
freq.    3176.41  E(vib)   ...       0.00 
freq.    3177.11  E(vib)   ...       0.00 
freq.    3180.35  E(vib)   ...       0.00 
freq.    3182.70  E(vib)   ...       0.00 
freq.    3195.39  E(vib)   ...       0.00 
freq.    3199.96  E(vib)   ...       0.00 
freq.    3204.14  E(vib)   ...       0.00 
freq.    3205.70  E(vib)   ...       0.00 
freq.    3207.02  E(vib)   ...       0.00 
freq.    3208.58  E(vib)   ...       0.00 
freq.    3230.49  E(vib)   ...       0.00 
freq.    3304.01  E(vib)   ...       0.00 

------------
INNER ENERGY
------------

The inner energy is: U= E(el) + E(ZPE) + E(vib) + E(rot) + E(trans)
    E(el)   - is the total energy from the electronic structure calculation
              = E(kin-el) + E(nuc-el) + E(el-el) + E(nuc-nuc)
    E(ZPE)  - the the zero temperature vibrational energy from the frequency calculation
    E(vib)  - the the finite temperature correction to E(ZPE) due to population
              of excited vibrational states
    E(rot)  - is the rotational thermal energy
    E(trans)- is the translational thermal energy

Summary of contributions to the inner energy U:
Electronic energy                ...    -99.89653076 Eh
Zero point energy                ...      0.36348379 Eh     228.09 kcal/mol
Thermal vibrational correction   ...      0.01321211 Eh       8.29 kcal/mol
Thermal rotational correction    ...      0.00141627 Eh       0.89 kcal/mol
Thermal translational correction ...      0.00141627 Eh       0.89 kcal/mol
-----------------------------------------------------------------------
Total thermal energy                    -99.51700231 Eh


Summary of corrections to the electronic energy:
(perhaps to be used in another calculation)
Total thermal correction                  0.01604465 Eh      10.07 kcal/mol
Non-thermal (ZPE) correction              0.36348379 Eh     228.09 kcal/mol
-----------------------------------------------------------------------
Total correction                          0.37952845 Eh     238.16 kcal/mol


--------
ENTHALPY
--------

The enthalpy is H = U + kB*T
                kB is Boltzmann's constant
Total thermal energy              ...    -99.51700231 Eh 
Thermal Enthalpy correction       ...      0.00094421 Eh       0.59 kcal/mol
-----------------------------------------------------------------------
Total Enthalpy                    ...    -99.51605810 Eh


Note: Only C1 symmetry has been detected, increase convergence thresholds 
      if your molecule has a higher symmetry. Symmetry factor of 1.0 is   
      used for the rotational entropy correction. 
 

Note: Rotational entropy computed according to Herzberg 
Infrared and Raman Spectra, Chapter V,1, Van Nostrand Reinhold, 1945 
Point Group:  C1, Symmetry Number:   1  
Rotational constants in cm-1:     0.022273     0.016319     0.010290 

Vibrational entropy computed according to the QRRHO of S. Grimme
Chem.Eur.J. 2012 18 9955 using a reference frequency of 100.0 cm-1


-------
ENTROPY
-------

The entropy contributions are T*S = T*(S(el)+S(vib)+S(rot)+S(trans))
     S(el)   - electronic entropy
     S(vib)  - vibrational entropy
     S(rot)  - rotational entropy
     S(trans)- translational entropy
The entropies will be listed as multiplied by the temperature to get
units of energy

Electronic entropy                ...      0.00000000 Eh      0.00 kcal/mol
Vibrational entropy               ...      0.02261878 Eh     14.19 kcal/mol
Rotational entropy                ...      0.01541022 Eh      9.67 kcal/mol
Translational entropy             ...      0.01988345 Eh     12.48 kcal/mol
-----------------------------------------------------------------------
Final entropy term                ...      0.05791245 Eh     36.34 kcal/mol

In case the symmetry of your molecule has not been determined correctly
or in case you have a reason to use a different symmetry number we print 
out the resulting rotational entropy values for sn=1,12:

 non-linear molecules -----------------------------------
|  sn= 1 | S(rot)=       0.01541022 Eh      9.67 kcal/mol|
|  sn= 2 | S(rot)=       0.01475577 Eh      9.26 kcal/mol|
|  sn= 3 | S(rot)=       0.01437293 Eh      9.02 kcal/mol|
|  sn= 4 | S(rot)=       0.01410131 Eh      8.85 kcal/mol|
|  sn= 5 | S(rot)=       0.01389062 Eh      8.72 kcal/mol|
|  sn= 6 | S(rot)=       0.01371848 Eh      8.61 kcal/mol|
|  sn= 7 | S(rot)=       0.01357293 Eh      8.52 kcal/mol|
|  sn= 8 | S(rot)=       0.01344685 Eh      8.44 kcal/mol|
|  sn= 9 | S(rot)=       0.01333565 Eh      8.37 kcal/mol|
|  sn=10 | S(rot)=       0.01323617 Eh      8.31 kcal/mol|
|  sn=11 | S(rot)=       0.01314618 Eh      8.25 kcal/mol|
|  sn=12 | S(rot)=       0.01306402 Eh      8.20 kcal/mol|
 linear molecules ---------------------------------------
|  Dinfh | S(rot)=       0.00964691 Eh      6.05 kcal/mol|
|  Cinfv | S(rot)=       0.01030137 Eh      6.46 kcal/mol|
 --------------------------------------------------------


-------------------
GIBBS FREE ENERGY
-------------------

The Gibbs free energy is G = H - T*S

Total enthalpy                    ...    -99.51605810 Eh 
Total entropy correction          ...     -0.05791245 Eh    -36.34 kcal/mol
-----------------------------------------------------------------------
Final Gibbs free energy         ...    -99.57397055 Eh

For completeness - the Gibbs free energy minus the electronic energy
G-E(el)                           ...      0.32256021 Eh    202.41 kcal/mol


Maximum memory used throughout the entire PROP-calculation: 240.3 MB

--------------------------------
SUGGESTED CITATIONS FOR THIS RUN
--------------------------------

Below you find a list of papers that are relevant to this ORCA run
We neither can nor want to force you to cite these papers, but we appreciate if you do
You receive ORCA, which is the product of decades of hard work by many enthusiastic individuals, for free
The only thing we kindly ask in return is that you cite our papers,
We deeply appreciate it, if you show your appreciation for ORCA by not just citing the generic ORCA reference.

Please note that relegating all ORCA citations to the supporting information does *not* help us.
SI sections are not indexed - citations you put there will not count into any citation statistics
But we need these citations in order to attract the funding resources that allow us to do what we are doing

Therefore, if you are a happy ORCA user, please consider citing a few of the papers listed below in the main body of your paper

In addition to the list printed below, the program has created the file ./output/germacrene_d/germacrene_d.bibtex that contains the list in bibtex format
You can import this file easily into all common literature databanks and citation aid programs


List of essential papers. We consider these as the minimum necessary citations

  1. Neese,F.
     Software update: the ORCA program system, version 5.0
     WIRES Comput. Molec. Sci., 2022 12(1)e1606
     doi.org/10.1002/wcms.1606
  2. Mueller,M.; Hansen,A.; Grimme,S.
     wB97X-3c: A composite range-separated hybrid DFT method with a molecule-optimized polarized valence double-zeta basis set
     J. Chem. Phys., 2023 158 014103
     doi.org/10.1063/5.0133026

List of papers to cite with high priority. The work reported in these papers was absolutely
necessary for this run to complete.
Our perspective: the developers of density functionals and basis sets usually get cited in chemistry papers
Good! But without the algorithms to do something with them, the functionals or basis sets would not do anything.
Hence, in our opinion, the algorithm design and method developments papers are equally worthy of getting cited

  1. Neese,F.
     An improvement of the resolution of the identity approximation for the formation of the Coulomb matrix
     J. Comp. Chem., 2003 24(14)1740-1747
     doi.org/10.1002/jcc.10318
  2. Neese,F.; Wennmohs,F.; Hansen,A.; Becker,U.
     Efficient, approximate and parallel Hartree-Fock and hybrid DFT calculations. A 'chain-of-spheres' algorithm for the Hartree-Fock exchange
     Chem. Phys., 2009 356(1-3)98-109
     doi.org/10.1016/j.chemphys.2008.10.036
  3. Bykov,D.; Petrenko,T.; Izsak,R.; Kossmann,S.; Becker,U.; Valeev,E.; Neese,F.
     Efficient implementation of the analytic second derivatives of Hartree-Fock and hybrid DFT energies: a detailed analysis of different approximations
     Molec. Phys., 2015 113 1961-1977
     doi.org/10.1080/00268976.2015.1025114
  4. Helmich-Paris,B.; de Souza,B.; Neese,F.; Izsák,R.
     An improved chain of spheres for exchange algorithm
     J. Chem. Phys., 2021 155 104109
     doi.org/doi: 10.1063/5.0058766.
  5. Neese,F.
     The SHARK Integral Generation and Digestion System
     J. Comp. Chem., 2022  1-16
     doi.org/10.1002/jcc.26942
  6. Caldeweyher,E.; Bannwarth,C.; Grimme,S.
     Extension of the D3 dispersion coefficient model
     J. Chem. Phys., 2017 147 034112
     doi.org/10.1063/1.4993215
  7. Caldeweyher,E.; Ehlert,S.; Hansen,A.; Neugebauer,H.; Spicher,S.; Bannwarth,C.; Grimme,S.
     A generally applicable atomic-charge dependent London dispersion correction
     J. Chem. Phys., 2019 150 154122
     doi.org/10.1063/1.5090222
  8. Caldeweyher,E.; Mewes,J.; Ehlert,S.; Grimme,S.
     Extension and evaluation of the D4 London-dispersion model for periodic systems
     Phys. Chem. Chem. Phys., 2020 22(16)8499-8512
     doi.org/10.1039/D0CP00502A
  9. Wittmann,L.; Gordiy,I.; Friede,M.; Helmich-Paris,B.; Grimme,S.; Hansen,A.; Bursch,M.
     Extension of the D3 and D4 London Dispersion Corrections to the full Actinides Series
     Phys. Chem. Chem. Phys., 2024 26(32)21379-21394
     doi.org/https://doi.org/10.1039/D4CP01514B 

List of suggested additional citations. These are papers that are important in the 'surrounding' of 
of this run, or papers that preceded the highly important papers. If you like your results we are grateful for a citation.

  1. Izsak,R.; Neese,F.
     An overlap fitted chain of spheres exchange method
     J. Chem. Phys., 2011 135 144105
     doi.org/10.1063/1.3646921
  2. Izsak,R.; Hansen,A.; Neese,F.
     The resolution of identity and chain of spheres approximations for the LPNO-CCSD singles Fock term
     Molec. Phys., 2012 110 2413-2417
     doi.org/10.1080/00268976.2012.687466
  3. Neese,F.
     The ORCA program system
     WIRES Comput. Molec. Sci., 2012 2(1)73-78
     doi.org/10.1002/wcms.81
  4. Izsak,R.; Neese,F.; Klopper,W.
     Robust fitting techniques in the chain of spheres approximation to the Fock exchange: The role of the complementary space
     J. Chem. Phys., 2013 139 
     doi.org/10.1063/1.4819264
  5. Neese,F.
     Software update: the ORCA program system, version 4.0
     WIRES Comput. Molec. Sci., 2018 8(1)1-6
     doi.org/10.1002/wcms.1327
  6. Neese,F.; Wennmohs,F.; Becker,U.; Riplinger,C.
     The ORCA quantum chemistry program package
     J. Chem. Phys., 2020 152 Art. No. L224108
     doi.org/10.1063/5.0004608

List of optional additional citations

  1. Neese,F.
     Approximate second-order SCF convergence for spin unrestricted wavefunctions
     Chem. Phys. Lett., 2000 325(1-3)93-98
     doi.org/10.1016/s0009-2614(00)00662-x

Timings for individual modules:

Sum of individual times          ...     2104.339 sec (=  35.072 min)
Startup calculation              ...       99.105 sec (=   1.652 min)   4.7 %
SCF iterations                   ...     1289.738 sec (=  21.496 min)  61.3 %
Property integrals               ...      138.997 sec (=   2.317 min)   6.6 %
SCF Response                     ...       89.269 sec (=   1.488 min)   4.2 %
Property calculations            ...      202.743 sec (=   3.379 min)   9.6 %
SCF Gradient evaluation          ...      283.836 sec (=   4.731 min)  13.5 %
Geometry relaxation              ...        0.651 sec (=   0.011 min)   0.0 %
                             ****ORCA TERMINATED NORMALLY****
TOTAL RUN TIME: 0 days 0 hours 35 minutes 13 seconds 749 msec
