
                                 *****************
                                 * O   R   C   A *
                                 *****************

                                            #,                                       
                                            ###                                      
                                            ####                                     
                                            #####                                    
                                            ######                                   
                                           ########,                                 
                                     ,,################,,,,,                         
                               ,,#################################,,                 
                          ,,##########################################,,             
                       ,#########################################, ''#####,          
                    ,#############################################,,   '####,        
                  ,##################################################,,,,####,       
                ,###########''''           ''''###############################       
              ,#####''   ,,,,##########,,,,          '''####'''          '####       
            ,##' ,,,,###########################,,,                        '##       
           ' ,,###''''                  '''############,,,                           
         ,,##''                                '''############,,,,        ,,,,,,###''
      ,#''                                            '''#######################'''  
     '                                                          ''''####''''         
             ,#######,   #######,   ,#######,      ##                                
            ,#'     '#,  ##    ##  ,#'     '#,    #''#        ,####,   ,####,        
            ##       ##  ##   ,#'  ##            #'  '#       #'       #'  '#        
            ##       ##  #######   ##           ,######,      #####,   #    #        
            '#,     ,#'  ##    ##  '#,     ,#' ,#      #,     #,   #   #,  ,#        
             '#######'   ##     ##  '#######'  #'      '#     '####' # '####'        



                #########################################################
                #                        -***-                          #
                #          Department of theory and spectroscopy        #
                #                                                       #
                #                      Frank Neese                      #
                #                                                       #
                #     Directorship, Architecture, Infrastructure        #
                #                    SHARK, DRIVERS                     #
                #        Core code/Algorithms in most modules           #
                #                                                       #
                #        Max Planck Institute fuer Kohlenforschung      #
                #                Kaiser Wilhelm Platz 1                 #
                #                 D-45470 Muelheim/Ruhr                 #
                #                      Germany                          #
                #                                                       #
                #                  All rights reserved                  #
                #                        -***-                          #
                #########################################################


                         Program Version 6.0.1  -  RELEASE   -


 With contributions from (in alphabetic order):
[Max-Planck-Institut fuer Kohlenforschung]                               
  Daniel Aravena         : Magnetic Suceptibility                        
  Michael Atanasov       : Ab Initio Ligand Field Theory (pilot matlab implementation)
  Alexander A. Auer      : GIAO ZORA, VPT2 properties, NMR spectrum      
  Ute Becker             : All parallelization in ORCA, NUMFREQ, NUMCALC 
  Giovanni Bistoni       : ED, misc. LED, open-shell LED, HFLD           
  Martin Brehm           : Molecular dynamics                            
  Dmytro Bykov           : pre 5.0 version of the SCF Hessian            
  Marcos Casanova-Páez   : Triplet and SCS-CIS(D). UHF-(DLPNO)-IP/EA/STEOM-CCSD. UHF-CVS-IP/STEOM-CCSD   
  Vijay G. Chilkuri      : MRCI spin determinant printing, contributions to CSF-ICE 
  Pauline Colinet        : FMM embedding                                 
  Dipayan Datta          : RHF DLPNO-CCSD density                        
  Achintya Kumar Dutta   : EOM-CC, STEOM-CC                              
  Nicolas Foglia         : Exact transition moments, OPA infrastructure, MCD improvements    
  Dmitry Ganyushin       : Spin-Orbit,Spin-Spin,Magnetic field MRCI      
  Miquel Garcia-Rates    : C-PCM and meta-GGA Hessian, CCSD/C-PCM, Gaussian charge scheme 
  Tiago L. C. Gouveia    : GS-ROHF, GS-ROCIS                             
  Yang Guo               : DLPNO-NEVPT2, F12-NEVPT2, CIM, IAO-localization        
  Andreas Hansen         : Spin unrestricted coupled pair/coupled cluster methods 
  Ingolf Harden          : AUTO-CI MPn and infrastructure                
  Benjamin Helmich-Paris : MC-RPA, TRAH-(SCF,CASSCF), AVAS, COSX integrals, SCF dyn. polar. 
  Lee Huntington         : MR-EOM, pCC                                   
  Robert Izsak           : Overlap fitted RIJCOSX, COSX-SCS-MP3, EOM     
  Riya Kayal             : Wick's Theorem for AUTO-CI, AUTO-CI UHF-CCSDT 
  Emily Kempfer          : AUTO-CI, RHF CISDT and CCSDT                  
  Christian Kollmar      : KDIIS, OOCD, Brueckner-CCSD(T), CCSD density, CASPT2, CASPT2-K, improved NEVPT2 
  Axel Koslowski         : Symmetry handling                             
  Simone Kossmann        : meta-GGA functionals, TD-DFT gradient, OOMP2, (MP2 Hessian; deprecated post 5.0) 
  Lucas Lang             : DCDCAS                                        
  Marvin Lechner         : AUTO-CI (C++ implementation), FIC-MRCC        
  Spencer Leger          : CASSCF response                               
  Dagmar Lenk            : GEPOL surface, SMD, ORCA-2-JSON               
  Dimitrios Liakos       : Extrapolation schemes; Compound Job, initial MDCI parallelization 
  Dimitrios Manganas     : Further ROCIS development; embedding schemes. LFT, Crystal Embedding 
  Dimitrios Pantazis     : SARC Basis sets                               
  Anastasios Papadopoulos: AUTO-CI, single reference methods and gradients 
  Taras Petrenko         : pre 6.0 DFT Hessian and TD-DFT gradient, (ASA, deprecated), ECA, 1-Electron XAS/XES, NRVS 
  Peter Pinski           : DLPNO-MP2, DLPNO-MP2 Gradient                 
  Christoph Reimann      : Effective Core Potentials                     
  Marius Retegan         : Local ZFS, SOC                                
  Christoph Riplinger    : Optimizer, TS searches, QM/MM, DLPNO-CCSD(T), (RO)-DLPNO pert. Triples 
  Michael Roemelt        : Original ROCIS implementation                 
  Masaaki Saitow         : Open-shell DLPNO-CCSD energy and density      
  Barbara Sandhoefer     : DKH picture change effects                    
  Kantharuban Sivalingam : CASSCF convergence/infrastructure, NEVPT2 and variants, FIC-MRCI 
  Bernardo de Souza      : ESD, SOC TD-DFT                               
  Georgi L. Stoychev     : AutoAux, RI-MP2 NMR, DLPNO-MP2 response, X2C  
  Van Anh Tran           : RI-MP2 g-tensors                              
  Willem Van den Heuvel  : Paramagnetic NMR                              
  Zikuan Wang            : NOTCH, Electric field optimization            
  Frank Wennmohs         : Technical directorship and infrastructure     
  Hang Xu                : AUTO-CI-Response properties                   
                                                                         
[FACCTs GmbH]                                                            
  Markus Bursch, Miquel Garcia-Rates, Christoph Riplinger, Bernardo de Souza, Georgi L. Stoychev 
                                                                 
  APM, Basis sets (HGBS, AHGBS, def-TZVP (Ac-Lr), def2-XVPD (La-Lu)), CI-OPT, improved COSX, DLPNO-Multilevel,           
  DOCKER, DRACO, updates on ESD, GOAT, IRC, LR-CPCM, MBIS, meta-GGA TD-DFT gradient, ML-optimized integration grids, 
  MM, NACMEs, nearIR, NEB, NEB-TS, NL-DFT gradient (VV10), 2- and 3-layer-ONIOM, interface openCOSMO-RS, QMMM,   
  Crystal-QMMM, SF, symmetry and pop. for TD-DFT, r2SCAN hybrids, SOLVATOR                                   
                                                                         
[Other institutions]                                                     
  V. Asgeirsson          : NEB                                           
  Christoph Bannwarth    : sTDA-DFT, sTD-DFT, PBEh-3c, B97-3c, D3        
  Sebastian Ehlert       : rSCAN, r2SCAN, r2SCAN-3c, D4, dhf basis sets  
  Marvin Friede          : D4 for Fr, Ra, Ac-Lr                          
  Lars Goerigk           : TD-DFT with DH, B97 family of functionals     
  Stefan Grimme          : VdW corrections, initial TS optimization, DFT functionals, gCP, sTDA/sTD-DF 
  Waldemar Hujo          : DFT-NL                                        
  H. Jonsson             : NEB                                           
  Holger Kruse           : gCP                                           
  Marcel Mueller         : wB97X-3c, vDZP basis set                      
  Hagen Neugebauer       : wr2SCAN                                       
  Tobias Risthaus        : range-separated hybrid DFT                    
  Lukas Wittmann         : regularized MP2, r2SCAN double-hybrids, wr2SCAN        
                                                                         
We gratefully acknowledge several colleagues who have allowed us to      
interface, adapt or use parts of their codes:                            
  Ed Valeev, F. Pavosevic, A. Kumar             : LibInt (2-el integral package), F12 methods 
  Garnet Chan, S. Sharma, J. Yang, R. Olivares  : DMRG                   
  Ulf Ekstrom                                   : XCFun DFT Library      
  Mihaly Kallay                                 : mrcc  (arbitrary order and MRCC methods)
  Frank Weinhold                                : gennbo (NPA and NBO analysis)           
  Simon Mueller                                 : openCOSMO-RS                            
  Christopher J. Cramer and Donald G. Truhlar   : smd solvation model                     
  S Lehtola, MJT Oliveira, MAL Marques          : LibXC Library                           
  Liviu Ungur et al                             : ANISO software                          


 Your calculation uses the libint2 library for the computation of 2-el integrals
 For citations please refer to: http://libint.valeyev.net

 Your ORCA version has been built with support for libXC version: 6.2.2
 For citations please refer to: https://libxc.gitlab.io

 This ORCA versions uses:
   CBLAS   interface :  Fast vector & matrix operations
   LAPACKE interface :  Fast linear algebra routines
   SCALAPACK package :  Parallel linear algebra routines
   Shared memory     :  Shared parallel matrices
   BLAS/LAPACK       :  OpenBLAS 0.3.27  USE64BITINT DYNAMIC_ARCH NO_AFFINITY SkylakeX SINGLE_THREADED
        Core in use  :  SkylakeX
   Copyright (c) 2011-2014, The OpenBLAS Project


Your calculation utilizes the atom-pairwise dispersion correction
based on EEQ partial charges (D4)


================================================================================

cite the ECPs for C  [vDZP-ECP] as follows:
   B-Ne (ecp-2-mwb), Al-Ar (ecp-10-mwb), Ga-Kr (ecp-28-mwb), Y-Cd (ecp-28-mwb), In-Xe (ecp-46-mwb):
     A. Bergner, M. Dolg, W. Küchle, H. Stoll, and H. Preuß, Mol. Phys. 80, 1431 (1993)., T. Leininger, A. Berning, A. Nicklass, H. Stoll, H.-J. Werner, and H.-J.Flad, Chem. Phys. 217, 19 (1997).
   Na-Mg, K-Ca, Rb-Sr, Cs-Ba (CRENBL):
     L. Fernandez Pacios and P. A. Christiansen, J. Chem. Phys. 82, 2664 (1985)., M. M. Hurley, L. F. Pacios, P. A. Christiansen, R. B. Ross, and W. C. Ermler, J. Chem. Phys. 84, 6840 (1986)., L. A. LaJohn, P. A. Christiansen, R. B. Ross, T. Atashroo, and W. C. Ermler, J. Chem. Phys. 87, 2812 (1987)., R. B. Ross, J. M. Powers, T. Atashroo, W. C. Ermler, L. A. LaJohn, and P. A. Christiansen, J. Chem. Phys. 93, 6654 (1990). 
   Sc-Zn (ecp-10-mdf):
     M. Dolg, U. Wedig, H. Stoll, and H. Preuss, J. Chem. Phys. 86, 866 (1986). 
   Y-Cd (ecp-28-mwb), Hf-Hg (ecp-60-mwb):
     D. Andrae, U. Häußermann, M. Dolg, H. Stoll, and H. Preuß, Theor. Chim. Acta 77, 123 (1990). 
   La (ecp-46-mwb):
     M. Dolg, H. Stoll, and H. Preuss, J. Chem. Phys. 90, 1730 (1989)., M. Dolg, H. Stoll, and H. Preuss, Theor. Chim. Acta 85, 441 (1993).
   Ce-Lu (SBKJC-ecp):
     T. R. Cundari and W. J. Stevens, J. Chem. Phys. 98, 5555 (1993).
   Tl-Rn (ecp-78-mwb):
     W. Küchle, M. Dolg, H. Stoll, and H. Preuss, Mol. Phys. 74, 1245 (1991).

ECP parameters for C  [vDZP-ECP] have been obtained from:
MM, AH, SG, J. Chem. Phys. 158, 014103 (2023), 10.1063/5.0133026

----- Orbital basis set information -----
Your calculation utilizes the basis: vDZP
   Marcel Mueller, Andreas Hansen, Stefan Grimme 
   J. Chem. Phys. 158, 014103 (2023). DOI: 10.1063/5.0133026

----- AuxJ basis set information -----
Your calculation utilizes the auxiliary basis: def2/J
   F. Weigend, Phys. Chem. Chem. Phys. 8, 1057 (2006).

================================================================================
                                        WARNINGS
                       Please study these warnings very carefully!
================================================================================

WARNING: Frozen-Core approximation turned on, but there are no core electrons.
  ===> : Turning off frozen-core approximation


WARNING: Geometry Optimization
  ===> : Switching off AutoStart
         For restart on a previous wavefunction, please use MOREAD

================================================================================
                                       INPUT FILE
================================================================================
NAME = ./output/gamma_patchoulene/gamma_patchoulene.inp
|  1> ! wB97X-3c OPT FREQ TightSCF
|  2> %pal
|  3>   nprocs 40
|  4> end
|  5> * xyz 0 1
|  6> C      3.273395    -0.908318    -0.454928
|  7> C      2.351691     0.275425    -0.130580
|  8> C      2.125248     0.465890     1.370157
|  9> C      0.742821     1.097846     1.505633
| 10> C     -0.089776     0.607606     0.299598
| 11> C      0.952231     0.286531    -0.801086
| 12> C      0.420759    -0.977886    -1.515828
| 13> C     -1.001351    -1.182447    -0.955665
| 14> C     -0.879152    -0.730095     0.518223
| 15> C     -2.250060    -0.547135     1.237612
| 16> C     -0.128793    -1.819153     1.337610
| 17> C     -2.012821    -0.293696    -1.742131
| 18> C     -1.762672     1.236540    -1.608866
| 19> C     -1.091662     1.621015    -0.291260
| 20> C     -1.504410     2.725633     0.358046
| 21> H      2.910310    -1.854448    -0.007569
| 22> H      3.363205    -1.029911    -1.555155
| 23> H      4.287298    -0.709996    -0.046820
| 24> H      2.888708     1.185810    -0.485714
| 25> H      2.168321    -0.496566     1.919067
| 26> H      2.904531     1.128994     1.806792
| 27> H      0.898733     2.196236     1.451756
| 28> H      0.267381     0.855105     2.479288
| 29> H      0.990176     1.101998    -1.560922
| 30> H      0.411480    -0.836669    -2.619055
| 31> H      1.025008    -1.882799    -1.315188
| 32> H     -1.308591    -2.248793    -1.038811
| 33> H     -2.087863    -0.214425     2.285085
| 34> H     -2.803814    -1.510387     1.258426
| 35> H     -2.918781     0.197933     0.765721
| 36> H     -0.718707    -2.761106     1.349670
| 37> H      0.008284    -1.503178     2.392915
| 38> H      0.857584    -2.077241     0.920705
| 39> H     -1.988291    -0.570983    -2.818435
| 40> H     -3.043067    -0.529714    -1.400451
| 41> H     -1.118942     1.578382    -2.446711
| 42> H     -2.738213     1.758058    -1.725259
| 43> H     -1.153552     2.983604     1.349227
| 44> H     -2.246647     3.382342    -0.085094
| 45> *
| 46> 
| 47>                          ****END OF INPUT****
================================================================================

                       *****************************
                       * Geometry Optimization Run *
                       *****************************

Geometry optimization settings:
Update method            Update   .... BFGS
Choice of coordinates    CoordSys .... (2022) Redundant Internals
Initial Hessian          InHess   .... Almloef's Model
Max. no of cycles        MaxIter  .... 117

Convergence Tolerances:
Energy Change            TolE     ....  5.0000e-06 Eh
Max. Gradient            TolMAXG  ....  3.0000e-04 Eh/bohr
RMS Gradient             TolRMSG  ....  1.0000e-04 Eh/bohr
Max. Displacement        TolMAXD  ....  4.0000e-03 bohr
RMS Displacement         TolRMSD  ....  2.0000e-03 bohr
Strict Convergence                .... False

------------------------------------------------------------------------------
                        ORCA OPTIMIZATION COORDINATE SETUP
------------------------------------------------------------------------------

The optimization will be done in redundant internal coordinates (2022)
Making redundant internal coordinates   ...  (2022 redundants) done
Evaluating the initial hessian          ...  (Almloef) done
Evaluating the coordinates              ...  done
Calculating the B-matrix                .... done
Calculating the G-matrix                .... done
Diagonalizing the G-matrix              .... done
Small eigenvalue found = 2.595e-02
Small eigenvalue found = 2.674e-02
The first mode is                       ....  112
The number of degrees of freedom        ....  111

    -----------------------------------------------------------------
                    Redundant Internal Coordinates


    -----------------------------------------------------------------
         Definition                    Initial Value    Approx d2E/dq
    -----------------------------------------------------------------
      1. B(C   1,C   0)                  1.5349         0.366880   
      2. B(C   2,C   1)                  1.5296         0.374084   
      3. B(C   3,C   2)                  1.5260         0.379036   
      4. B(C   4,C   3)                  1.5453         0.353106   
      5. B(C   5,C   1)                  1.5518         0.344780   
      6. B(C   5,C   4)                  1.5493         0.347988   
      7. B(C   6,C   5)                  1.5466         0.351433   
      8. B(C   7,C   6)                  1.5421         0.357353   
      9. B(C   8,C   7)                  1.5466         0.351504   
     10. B(C   8,C   4)                  1.5686         0.324243   
     11. B(C   9,C   8)                  1.5590         0.335861   
     12. B(C  10,C   8)                  1.5558         0.339807   
     13. B(C  11,C   7)                  1.5593         0.335428   
     14. B(C  12,C  11)                  1.5563         0.339215   
     15. B(C  13,C   4)                  1.5427         0.356562   
     16. B(C  13,C  12)                  1.5278         0.376612   
     17. B(C  14,C  13)                  1.3462         0.733984   
     18. B(H  15,C   0)                  1.1078         0.337361   
     19. B(H  16,C   0)                  1.1106         0.333900   
     20. B(H  17,C   0)                  1.1108         0.333606   
     21. B(H  18,C   1)                  1.1150         0.328456   
     22. B(H  19,C   2)                  1.1088         0.336046   
     23. B(H  20,C   2)                  1.1125         0.331542   
     24. B(H  21,C   3)                  1.1107         0.333722   
     25. B(H  22,C   3)                  1.1104         0.334110   
     26. B(H  23,C   5)                  1.1152         0.328203   
     27. B(H  24,C   6)                  1.1123         0.331816   
     28. B(H  25,C   6)                  1.1065         0.338978   
     29. B(H  26,C   7)                  1.1128         0.331124   
     30. B(H  27,C   9)                  1.1109         0.333429   
     31. B(H  28,C   9)                  1.1113         0.333028   
     32. B(H  29,C   9)                  1.1068         0.338554   
     33. B(H  30,C  10)                  1.1115         0.332759   
     34. B(H  31,C  10)                  1.1101         0.334481   
     35. B(H  32,C  10)                  1.1015         0.345171   
     36. B(H  33,C  11)                  1.1117         0.332484   
     37. B(H  34,C  11)                  1.1108         0.333620   
     38. B(H  35,C  12)                  1.1105         0.333967   
     39. B(H  36,C  12)                  1.1123         0.331777   
     40. B(H  37,C  14)                  1.0826         0.369981   
     41. B(H  38,C  14)                  1.0856         0.365950   
     42. A(C   1,C   0,H  15)          112.1188         0.319923   
     43. A(H  15,C   0,H  16)          109.4557         0.284510   
     44. A(H  15,C   0,H  17)          107.6555         0.284471   
     45. A(C   1,C   0,H  16)          110.0198         0.319385   
     46. A(C   1,C   0,H  17)          109.4375         0.319339   
     47. A(H  16,C   0,H  17)          108.0419         0.284015   
     48. A(C   5,C   1,H  18)          106.9099         0.315324   
     49. A(C   0,C   1,C   5)          117.1128         0.357315   
     50. A(C   0,C   1,H  18)          105.8521         0.318529   
     51. A(C   0,C   1,C   2)          113.0942         0.362315   
     52. A(C   2,C   1,C   5)          106.8292         0.358499   
     53. A(C   2,C   1,H  18)          106.3864         0.319542   
     54. A(C   3,C   2,H  20)          110.6638         0.320719   
     55. A(C   3,C   2,H  19)          110.5297         0.321428   
     56. A(C   1,C   2,H  20)          110.8297         0.320030   
     57. A(C   1,C   2,C   3)          105.8291         0.364339   
     58. A(H  19,C   2,H  20)          107.2096         0.284024   
     59. A(C   1,C   2,H  19)          111.8303         0.320737   
     60. A(C   2,C   3,H  22)          112.0361         0.321124   
     61. A(C   4,C   3,H  21)          110.5786         0.317370   
     62. A(C   4,C   3,H  22)          112.5995         0.317430   
     63. A(C   2,C   3,H  21)          106.1440         0.321063   
     64. A(C   2,C   3,C   4)          106.7034         0.360766   
     65. A(H  21,C   3,H  22)          108.5916         0.284058   
     66. A(C   8,C   4,C  13)          106.6654         0.351908   
     67. A(C   5,C   4,C   8)          105.1146         0.350464   
     68. A(C   3,C   4,C  13)          116.1306         0.357032   
     69. A(C   3,C   4,C   8)          115.6526         0.351329   
     70. A(C   3,C   4,C   5)          104.9412         0.355559   
     71. A(C   5,C   4,C  13)          107.5072         0.356148   
     72. A(C   1,C   5,C   4)          107.5204         0.354124   
     73. A(C   6,C   5,H  23)          107.1343         0.316266   
     74. A(C   4,C   5,H  23)          110.8168         0.315759   
     75. A(C   1,C   5,H  23)          105.6005         0.315285   
     76. A(C   4,C   5,C   6)          105.4633         0.355273   
     77. A(C   1,C   5,C   6)          120.2460         0.354716   
     78. A(H  24,C   6,H  25)          106.7535         0.284445   
     79. A(C   5,C   6,H  25)          113.4004         0.317933   
     80. A(C   7,C   6,H  24)          111.6815         0.317693   
     81. A(C   5,C   6,H  24)          110.9432         0.316830   
     82. A(C   5,C   6,C   7)          104.9204         0.356878   
     83. A(C   7,C   6,H  25)          109.2242         0.318801   
     84. A(C  11,C   7,H  26)          109.2311         0.314332   
     85. A(C   8,C   7,H  26)          111.9184         0.316732   
     86. A(C   6,C   7,H  26)          110.7676         0.317584   
     87. A(C   6,C   7,C   8)          103.5629         0.356891   
     88. A(C   8,C   7,C  11)          111.4203         0.353079   
     89. A(C   6,C   7,C  11)          109.8390         0.354067   
     90. A(C   4,C   8,C   9)          114.0023         0.348373   
     91. A(C   4,C   8,C   7)           98.9965         0.351059   
     92. A(C   4,C   8,C  10)          115.3197         0.349060   
     93. A(C   9,C   8,C  10)          105.2624         0.351140   
     94. A(C   7,C   8,C  10)          109.5897         0.353855   
     95. A(C   7,C   8,C   9)          113.8666         0.353156   
     96. A(C   8,C   9,H  29)          114.4293         0.315533   
     97. A(H  27,C   9,H  28)          108.3417         0.283876   
     98. A(C   8,C   9,H  28)          110.1885         0.314691   
     99. A(C   8,C   9,H  27)          109.9895         0.314752   
    100. A(H  28,C   9,H  29)          106.8831         0.284550   
    101. A(H  27,C   9,H  29)          106.7745         0.284604   
    102. A(H  31,C  10,H  32)          108.4162         0.285603   
    103. A(H  30,C  10,H  32)          106.3082         0.285373   
    104. A(C   8,C  10,H  32)          113.3634         0.317130   
    105. A(H  30,C  10,H  31)          107.2442         0.283980   
    106. A(C   8,C  10,H  31)          111.1607         0.315511   
    107. A(C   8,C  10,H  30)          110.0577         0.315247   
    108. A(C   7,C  11,C  12)          114.3919         0.350960   
    109. A(H  33,C  11,H  34)          105.3830         0.283830   
    110. A(C  12,C  11,H  34)          109.3699         0.315290   
    111. A(C   7,C  11,H  34)          108.9885         0.314715   
    112. A(C  12,C  11,H  33)          108.9418         0.315115   
    113. A(C   7,C  11,H  33)          109.3795         0.314541   
    114. A(C  11,C  12,C  13)          113.0722         0.357918   
    115. A(H  35,C  12,H  36)          106.5662         0.283782   
    116. A(C  13,C  12,H  36)          110.9440         0.320420   
    117. A(C  11,C  12,H  36)          108.1249         0.315006   
    118. A(C  13,C  12,H  35)          108.5791         0.320764   
    119. A(C  11,C  12,H  35)          109.3444         0.315343   
    120. A(C  12,C  13,C  14)          119.1972         0.409251   
    121. A(C   4,C  13,C  14)          123.6026         0.405310   
    122. A(C   4,C  13,C  12)          116.7587         0.360970   
    123. A(H  37,C  14,H  38)          116.8172         0.292822   
    124. A(C  13,C  14,H  38)          120.6055         0.364187   
    125. A(C  13,C  14,H  37)          122.5311         0.364870   
    126. D(C   2,C   1,C   0,H  16)    177.2777         0.010771   
    127. D(C   2,C   1,C   0,H  15)     55.2216         0.010771   
    128. D(C   5,C   1,C   0,H  15)    -69.6632         0.010771   
    129. D(C   5,C   1,C   0,H  16)     52.3930         0.010771   
    130. D(C   5,C   1,C   0,H  17)    170.9566         0.010771   
    131. D(C   2,C   1,C   0,H  17)    -64.1586         0.010771   
    132. D(C   3,C   2,C   1,C   5)    -20.8601         0.011172   
    133. D(C   3,C   2,C   1,C   0)   -151.1456         0.011172   
    134. D(H  19,C   2,C   1,C   5)     99.5541         0.011172   
    135. D(H  19,C   2,C   1,C   0)    -30.7314         0.011172   
    136. D(H  19,C   2,C   1,H  18)   -146.5114         0.011172   
    137. D(C   3,C   2,C   1,H  18)     93.0744         0.011172   
    138. D(C   4,C   3,C   2,C   1)     29.2703         0.011453   
    139. D(C   4,C   3,C   2,H  20)    149.3992         0.011453   
    140. D(C   4,C   3,C   2,H  19)    -91.9881         0.011453   
    141. D(H  21,C   3,C   2,C   1)    -88.6930         0.011453   
    142. D(H  21,C   3,C   2,H  20)     31.4359         0.011453   
    143. D(H  21,C   3,C   2,H  19)    150.0486         0.011453   
    144. D(C   8,C   4,C   3,H  22)    -33.9318         0.010032   
    145. D(C   8,C   4,C   3,H  21)   -155.6106         0.010032   
    146. D(C   8,C   4,C   3,C   2)     89.3808         0.010032   
    147. D(C   5,C   4,C   3,H  22)   -149.2432         0.010032   
    148. D(C   5,C   4,C   3,C   2)    -25.9305         0.010032   
    149. D(C   5,C   4,C   3,H  21)     89.0780         0.010032   
    150. D(C   6,C   5,C   1,H  18)    130.7281         0.009601   
    151. D(C   6,C   5,C   1,C   0)     12.2774         0.009601   
    152. D(C   4,C   5,C   1,H  18)   -108.7595         0.009601   
    153. D(C   4,C   5,C   1,C   2)      4.8193         0.009601   
    154. D(C   4,C   5,C   1,C   0)    132.7898         0.009601   
    155. D(C   1,C   5,C   4,C   3)     12.8122         0.009766   
    156. D(C   6,C   5,C   1,C   2)   -115.6931         0.009601   
    157. D(C   6,C   5,C   4,C  13)    -93.5349         0.009766   
    158. D(C   6,C   5,C   4,C   8)     19.8361         0.009766   
    159. D(C   6,C   5,C   4,C   3)    142.2609         0.009766   
    160. D(C   1,C   5,C   4,C  13)    137.0164         0.009766   
    161. D(C   1,C   5,C   4,C   8)   -109.6125         0.009766   
    162. D(H  24,C   6,C   5,H  23)     11.7957         0.009944   
    163. D(H  24,C   6,C   5,C   4)    129.9040         0.009944   
    164. D(H  24,C   6,C   5,C   1)   -108.5707         0.009944   
    165. D(C   7,C   6,C   5,C   4)      9.1492         0.009944   
    166. D(C   7,C   6,C   5,H  23)   -108.9590         0.009944   
    167. D(C   7,C   6,C   5,C   1)    130.6745         0.009944   
    168. D(C  11,C   7,C   6,H  25)   -154.2650         0.010256   
    169. D(C   8,C   7,C   6,H  25)     86.6292         0.010256   
    170. D(C   8,C   7,C   6,H  24)   -155.5208         0.010256   
    171. D(C  11,C   7,C   6,C   5)     83.8510         0.010256   
    172. D(C   8,C   7,C   6,C   5)    -35.2548         0.010256   
    173. D(C  11,C   7,C   6,H  24)    -36.4150         0.010256   
    174. D(C   9,C   8,C   7,H  26)    -73.0820         0.009948   
    175. D(C   9,C   8,C   7,C   6)    167.5618         0.009948   
    176. D(C   4,C   8,C   7,H  26)    165.5591         0.009948   
    177. D(C   4,C   8,C   7,C  11)    -71.8092         0.009948   
    178. D(C   4,C   8,C   7,C   6)     46.2029         0.009948   
    179. D(C   9,C   8,C   4,C  13)    -47.7780         0.008593   
    180. D(C   9,C   8,C   4,C   5)   -161.7394         0.008593   
    181. D(C   9,C   8,C   4,C   3)     83.0478         0.008593   
    182. D(C   7,C   8,C   4,C  13)     73.4818         0.008593   
    183. D(C   9,C   8,C   7,C  11)     49.5497         0.009948   
    184. D(C   7,C   8,C   4,C   5)    -40.4796         0.008593   
    185. D(C   7,C   8,C   4,C   3)   -155.6923         0.008593   
    186. D(H  27,C   9,C   8,C  10)     60.4342         0.009154   
    187. D(H  27,C   9,C   8,C   7)   -179.5152         0.009154   
    188. D(H  27,C   9,C   8,C   4)    -66.9218         0.009154   
    189. D(H  28,C   9,C   8,C  10)    -58.9414         0.009154   
    190. D(H  28,C   9,C   8,C   7)     61.1092         0.009154   
    191. D(H  28,C   9,C   8,C   4)    173.7026         0.009154   
    192. D(H  31,C  10,C   8,C   9)    -59.3594         0.009350   
    193. D(H  31,C  10,C   8,C   7)    177.8019         0.009350   
    194. D(H  31,C  10,C   8,C   4)     67.1925         0.009350   
    195. D(H  30,C  10,C   8,C   9)     59.3085         0.009350   
    196. D(H  30,C  10,C   8,C   7)    -63.5301         0.009350   
    197. D(H  30,C  10,C   8,C   4)   -174.1395         0.009350   
    198. D(H  33,C  11,C   7,H  26)    -62.2632         0.009133   
    199. D(H  33,C  11,C   7,C   8)    173.5748         0.009133   
    200. D(H  33,C  11,C   7,C   6)     59.4109         0.009133   
    201. D(C  12,C  11,C   7,H  26)    175.2347         0.009133   
    202. D(C  12,C  11,C   7,C   8)     51.0727         0.009133   
    203. D(C  12,C  11,C   7,C   6)    -63.0912         0.009133   
    204. D(H  35,C  12,C  11,H  34)   -144.5647         0.009321   
    205. D(H  35,C  12,C  11,H  33)    -29.8602         0.009321   
    206. D(H  35,C  12,C  11,C   7)     92.8796         0.009321   
    207. D(C  13,C  12,C  11,H  34)     94.3324         0.009321   
    208. D(C  13,C  12,C  11,H  33)   -150.9631         0.009321   
    209. D(C  13,C  12,C  11,C   7)    -28.2234         0.009321   
    210. D(C  14,C  13,C  12,H  35)     99.2936         0.010596   
    211. D(C  14,C  13,C  12,C  11)   -139.1714         0.010596   
    212. D(C   4,C  13,C  12,H  36)    155.1549         0.010596   
    213. D(C   4,C  13,C  12,H  35)    -88.0544         0.010596   
    214. D(C   4,C  13,C  12,C  11)     33.4806         0.010596   
    215. D(C  14,C  13,C   4,C   5)   -134.0677         0.009575   
    216. D(C  14,C  13,C   4,C   3)    -16.9469         0.009575   
    217. D(C  12,C  13,C   4,C   8)    -58.6874         0.009575   
    218. D(C  12,C  13,C   4,C   5)     53.6358         0.009575   
    219. D(C  12,C  13,C   4,C   3)    170.7566         0.009575   
    220. D(H  38,C  14,C  13,C  12)     -5.0290         0.038263   
    221. D(H  38,C  14,C  13,C   4)   -177.1482         0.038263   
    222. D(H  37,C  14,C  13,C  12)    172.4186         0.038263   
    223. D(H  37,C  14,C  13,C   4)      0.2993         0.038263   
    -----------------------------------------------------------------

Number of atoms                         .... 39
Number of degrees of freedom            .... 223


         *************************************************************
         *                GEOMETRY OPTIMIZATION CYCLE   1            *
         *************************************************************
---------------------------------
CARTESIAN COORDINATES (ANGSTROEM)
---------------------------------
  C      3.273395   -0.908318   -0.454928
  C      2.351691    0.275425   -0.130580
  C      2.125248    0.465890    1.370157
  C      0.742821    1.097846    1.505633
  C     -0.089776    0.607606    0.299598
  C      0.952231    0.286531   -0.801086
  C      0.420759   -0.977886   -1.515828
  C     -1.001351   -1.182447   -0.955665
  C     -0.879152   -0.730095    0.518223
  C     -2.250060   -0.547135    1.237612
  C     -0.128793   -1.819153    1.337610
  C     -2.012821   -0.293696   -1.742131
  C     -1.762672    1.236540   -1.608866
  C     -1.091662    1.621015   -0.291260
  C     -1.504410    2.725633    0.358046
  H      2.910310   -1.854448   -0.007569
  H      3.363205   -1.029911   -1.555155
  H      4.287298   -0.709996   -0.046820
  H      2.888708    1.185810   -0.485714
  H      2.168321   -0.496566    1.919067
  H      2.904531    1.128994    1.806792
  H      0.898733    2.196236    1.451756
  H      0.267381    0.855105    2.479288
  H      0.990176    1.101998   -1.560922
  H      0.411480   -0.836669   -2.619055
  H      1.025008   -1.882799   -1.315188
  H     -1.308591   -2.248793   -1.038811
  H     -2.087863   -0.214425    2.285085
  H     -2.803814   -1.510387    1.258426
  H     -2.918781    0.197933    0.765721
  H     -0.718707   -2.761106    1.349670
  H      0.008284   -1.503178    2.392915
  H      0.857584   -2.077241    0.920705
  H     -1.988291   -0.570983   -2.818435
  H     -3.043067   -0.529714   -1.400451
  H     -1.118942    1.578382   -2.446711
  H     -2.738213    1.758058   -1.725259
  H     -1.153552    2.983604    1.349227
  H     -2.246647    3.382342   -0.085094

----------------------------
CARTESIAN COORDINATES (A.U.)
----------------------------
  NO LB      ZA    FRAG     MASS         X           Y           Z
   0 C     4.0000*   0    12.011    6.185820   -1.716472   -0.859689
   1 C     4.0000*   0    12.011    4.444052    0.520478   -0.246760
   2 C     4.0000*   0    12.011    4.016137    0.880405    2.589221
   3 C     4.0000*   0    12.011    1.403728    2.074628    2.845234
   4 C     4.0000*   0    12.011   -0.169652    1.148209    0.566158
   5 C     4.0000*   0    12.011    1.799456    0.541465   -1.513833
   6 C     4.0000*   0    12.011    0.795119   -1.847937   -2.864500
   7 C     4.0000*   0    12.011   -1.892279   -2.234501   -1.805945
   8 C     4.0000*   0    12.011   -1.661357   -1.379680    0.979300
   9 C     4.0000*   0    12.011   -4.251997   -1.033935    2.338748
  10 C     4.0000*   0    12.011   -0.243383   -3.437701    2.527717
  11 C     4.0000*   0    12.011   -3.803680   -0.555005   -3.292150
  12 C     4.0000*   0    12.011   -3.330967    2.336722   -3.040316
  13 C     4.0000*   0    12.011   -2.062942    3.063274   -0.550402
  14 C     4.0000*   0    12.011   -2.842923    5.150700    0.676609
  15 H     1.0000    0     1.008    5.499689   -3.504399   -0.014303
  16 H     1.0000    0     1.008    6.355536   -1.946250   -2.938817
  17 H     1.0000    0     1.008    8.101819   -1.341698   -0.088477
  18 H     1.0000    0     1.008    5.458867    2.240856   -0.917866
  19 H     1.0000    0     1.008    4.097533   -0.938374    3.626511
  20 H     1.0000    0     1.008    5.488768    2.133489    3.414342
  21 H     1.0000    0     1.008    1.698359    4.150285    2.743421
  22 H     1.0000    0     1.008    0.505277    1.615914    4.685175
  23 H     1.0000    0     1.008    1.871161    2.082474   -2.949715
  24 H     1.0000    0     1.008    0.777585   -1.581075   -4.949297
  25 H     1.0000    0     1.008    1.936984   -3.557974   -2.485345
  26 H     1.0000    0     1.008   -2.472879   -4.249603   -1.963068
  27 H     1.0000    0     1.008   -3.945489   -0.405205    4.318185
  28 H     1.0000    0     1.008   -5.298441   -2.854218    2.378080
  29 H     1.0000    0     1.008   -5.515697    0.374039    1.447003
  30 H     1.0000    0     1.008   -1.358159   -5.217734    2.550507
  31 H     1.0000    0     1.008    0.015654   -2.840595    4.521954
  32 H     1.0000    0     1.008    1.620599   -3.925417    1.739880
  33 H     1.0000    0     1.008   -3.757325   -1.079001   -5.326070
  34 H     1.0000    0     1.008   -5.750563   -1.001014   -2.646469
  35 H     1.0000    0     1.008   -2.114494    2.982710   -4.623614
  36 H     1.0000    0     1.008   -5.174473    3.322248   -3.260267
  37 H     1.0000    0     1.008   -2.179897    5.638194    2.549670
  38 H     1.0000    0     1.008   -4.245548    6.391700   -0.160804
* core charge reduced due to ECP

--------------------------------
INTERNAL COORDINATES (ANGSTROEM)
--------------------------------
 C      0   0   0     0.000000000000     0.00000000     0.00000000
 C      1   0   0     1.534922596996     0.00000000     0.00000000
 C      2   1   0     1.529629004577   113.09423285     0.00000000
 C      3   2   1     1.526049325166   105.82906692   208.85438857
 C      4   3   2     1.545339264768   106.70339175    29.27026628
 C      5   4   3     1.549313722759   104.94121198   334.06946586
 C      6   5   4     1.546631489152   105.46325424   142.26089097
 C      7   6   5     1.542084511753   104.92035891     9.14924251
 C      8   7   6     1.546577112222   103.56294558   324.74520941
 C      9   8   7     1.558968774346   113.86659567   167.56176768
 C      9   8   7     1.555789514046   109.58973656   285.14242319
 C      8   7   6     1.559319938325   109.83896413    83.85103587
 C     12   8   7     1.556263569619   114.39186885   296.90884634
 C     13  12   8     1.527796130693   113.07220736   331.77664482
 C     14  13  12     1.346157538724   119.19715315   220.82860643
 H      1   2   3     1.107755735262   112.11878561    55.22157536
 H      1   2   3     1.110562985732   110.01975780   177.27773935
 H      1   2   3     1.110802884745   109.43754170   295.84136315
 H      2   1   3     1.115037337702   105.85211034   116.09739254
 H      3   2   1     1.108818751359   111.83026438   329.26857212
 H      3   2   1     1.112492261605   110.82966489    88.83400778
 H      4   3   2     1.110707826106   106.14402637   271.30697886
 H      4   3   2     1.110392023434   112.03612997   152.93250195
 H      6   5   4     1.115247505270   110.81682038   257.86825470
 H      7   6   5     1.112267123698   110.94322688   129.90402428
 H      7   6   5     1.106454156832   113.40036970   250.03179172
 H      8   7   6     1.112835777027   110.76758094   204.60223448
 H     10   9   8     1.110947116940   109.98945381   180.48475357
 H     10   9   8     1.111274552312   110.18848936    61.10918217
 H     10   9   8     1.106795020022   114.42934543   300.65287941
 H     11   9   8     1.111494230846   110.05774061   296.46985088
 H     11   9   8     1.110089612409   111.16070829   177.80188617
 H     11   9   8     1.101525660572   113.36335991    55.37458438
 H     12   8   7     1.111719434788   109.37953701    59.41092869
 H     12   8   7     1.110790952088   108.98853893   174.14613448
 H     13  12   8     1.110508221441   109.34435661    92.87956848
 H     13  12   8     1.112298789649   108.12485288   208.52965484
 H     15  14  13     1.082631122666   122.53110006   172.41856655
 H     15  14  13     1.085612976364   120.60545384   354.97103124

---------------------------
INTERNAL COORDINATES (A.U.)
---------------------------
 C      0   0   0     0.000000000000     0.00000000     0.00000000
 C      1   0   0     2.900583345090     0.00000000     0.00000000
 C      2   1   0     2.890579905153   113.09423285     0.00000000
 C      3   2   1     2.883815291420   105.82906692   208.85438857
 C      4   3   2     2.920267994407   106.70339175    29.27026628
 C      5   4   3     2.927778631541   104.94121198   334.06946586
 C      6   5   4     2.922709944596   105.46325424   142.26089097
 C      7   6   5     2.914117402576   104.92035891     9.14924251
 C      8   7   6     2.922607187090   103.56294558   324.74520941
 C      9   8   7     2.946024034848   113.86659567   167.56176768
 C      9   8   7     2.940016103572   109.58973656   285.14242319
 C      8   7   6     2.946687638597   109.83896413    83.85103587
 C     12   8   7     2.940911938778   114.39186885   296.90884634
 C     13  12   8     2.887116275475   113.07220736   331.77664482
 C     14  13  12     2.543869081302   119.19715315   220.82860643
 H      1   2   3     2.093354962926   112.11878561    55.22157536
 H      1   2   3     2.098659897503   110.01975780   177.27773935
 H      1   2   3     2.099113240937   109.43754170   295.84136315
 H      2   1   3     2.107115197354   105.85211034   116.09739254
 H      3   2   1     2.095363772225   111.83026438   329.26857212
 H      3   2   1     2.102305700539   110.82966489    88.83400778
 H      4   3   2     2.098933606143   106.14402637   271.30697886
 H      4   3   2     2.098336825581   112.03612997   152.93250195
 H      6   5   4     2.107512356498   110.81682038   257.86825470
 H      7   6   5     2.101880251553   110.94322688   129.90402428
 H      7   6   5     2.090895336151   113.40036970   250.03179172
 H      8   7   6     2.102954850611   110.76758094   204.60223448
 H     10   9   8     2.099385800287   109.98945381   180.48475357
 H     10   9   8     2.100004563465   110.18848936    61.10918217
 H     10   9   8     2.091539474230   114.42934543   300.65287941
 H     11   9   8     2.100419695733   110.05774061   296.46985088
 H     11   9   8     2.097765351564   111.16070829   177.80188617
 H     11   9   8     2.081581827967   113.36335991    55.37458438
 H     12   8   7     2.100845269507   109.37953701    59.41092869
 H     12   8   7     2.099090691483   108.98853893   174.14613448
 H     13  12   8     2.098556407992   109.34435661    92.87956848
 H     13  12   8     2.101940091528   108.12485288   208.52965484
 H     15  14  13     2.045876325899   122.53110006   172.41856655
 H     15  14  13     2.051511212759   120.60545384   354.97103124

---------------------
BASIS SET INFORMATION
---------------------
There are 2 groups of distinct atoms

 Group   1 Type C   : 6s6p2d contracted to 2s2p1d pattern {42/42/2}
 Group   2 Type H   : 8s2p contracted to 2s1p pattern {53/2}

Atom   0C    basis set group =>   1
Atom   1C    basis set group =>   1
Atom   2C    basis set group =>   1
Atom   3C    basis set group =>   1
Atom   4C    basis set group =>   1
Atom   5C    basis set group =>   1
Atom   6C    basis set group =>   1
Atom   7C    basis set group =>   1
Atom   8C    basis set group =>   1
Atom   9C    basis set group =>   1
Atom  10C    basis set group =>   1
Atom  11C    basis set group =>   1
Atom  12C    basis set group =>   1
Atom  13C    basis set group =>   1
Atom  14C    basis set group =>   1
Atom  15H    basis set group =>   2
Atom  16H    basis set group =>   2
Atom  17H    basis set group =>   2
Atom  18H    basis set group =>   2
Atom  19H    basis set group =>   2
Atom  20H    basis set group =>   2
Atom  21H    basis set group =>   2
Atom  22H    basis set group =>   2
Atom  23H    basis set group =>   2
Atom  24H    basis set group =>   2
Atom  25H    basis set group =>   2
Atom  26H    basis set group =>   2
Atom  27H    basis set group =>   2
Atom  28H    basis set group =>   2
Atom  29H    basis set group =>   2
Atom  30H    basis set group =>   2
Atom  31H    basis set group =>   2
Atom  32H    basis set group =>   2
Atom  33H    basis set group =>   2
Atom  34H    basis set group =>   2
Atom  35H    basis set group =>   2
Atom  36H    basis set group =>   2
Atom  37H    basis set group =>   2
Atom  38H    basis set group =>   2
---------------------------------
AUXILIARY/J BASIS SET INFORMATION
---------------------------------
There are 2 groups of distinct atoms

 Group   1 Type C   : 12s5p4d2f1g contracted to 6s4p3d1f1g pattern {711111/2111/211/2/1}
 Group   2 Type H   : 5s2p1d contracted to 3s1p1d pattern {311/2/1}

Atom   0C    basis set group =>   1
Atom   1C    basis set group =>   1
Atom   2C    basis set group =>   1
Atom   3C    basis set group =>   1
Atom   4C    basis set group =>   1
Atom   5C    basis set group =>   1
Atom   6C    basis set group =>   1
Atom   7C    basis set group =>   1
Atom   8C    basis set group =>   1
Atom   9C    basis set group =>   1
Atom  10C    basis set group =>   1
Atom  11C    basis set group =>   1
Atom  12C    basis set group =>   1
Atom  13C    basis set group =>   1
Atom  14C    basis set group =>   1
Atom  15H    basis set group =>   2
Atom  16H    basis set group =>   2
Atom  17H    basis set group =>   2
Atom  18H    basis set group =>   2
Atom  19H    basis set group =>   2
Atom  20H    basis set group =>   2
Atom  21H    basis set group =>   2
Atom  22H    basis set group =>   2
Atom  23H    basis set group =>   2
Atom  24H    basis set group =>   2
Atom  25H    basis set group =>   2
Atom  26H    basis set group =>   2
Atom  27H    basis set group =>   2
Atom  28H    basis set group =>   2
Atom  29H    basis set group =>   2
Atom  30H    basis set group =>   2
Atom  31H    basis set group =>   2
Atom  32H    basis set group =>   2
Atom  33H    basis set group =>   2
Atom  34H    basis set group =>   2
Atom  35H    basis set group =>   2
Atom  36H    basis set group =>   2
Atom  37H    basis set group =>   2
Atom  38H    basis set group =>   2
-------------------------
ECP PARAMETER INFORMATION
-------------------------

 Group 1, Type C  ECP vDZP-ECP (replacing 2 core electrons, lmax=3)

Atom   0C    ECP group =>   1
Atom   1C    ECP group =>   1
Atom   2C    ECP group =>   1
Atom   3C    ECP group =>   1
Atom   4C    ECP group =>   1
Atom   5C    ECP group =>   1
Atom   6C    ECP group =>   1
Atom   7C    ECP group =>   1
Atom   8C    ECP group =>   1
Atom   9C    ECP group =>   1
Atom  10C    ECP group =>   1
Atom  11C    ECP group =>   1
Atom  12C    ECP group =>   1
Atom  13C    ECP group =>   1
Atom  14C    ECP group =>   1



           ************************************************************
           *        Program running with 40 parallel MPI-processes    *
           *              working on a common directory               *
           ************************************************************
------------------------------------------------------------------------------
                             ORCA STARTUP CALCULATIONS
                           -- RI-GTO INTEGRALS CHOSEN --
------------------------------------------------------------------------------
------------------------------------------------------------------------------
                   ___                                                        
                  /   \      - P O W E R E D   B Y -                         
                 /     \                                                     
                 |  |  |   _    _      __       _____    __    __             
                 |  |  |  | |  | |    /  \     |  _  \  |  |  /  |          
                  \  \/   | |  | |   /    \    | | | |  |  | /  /          
                 / \  \   | |__| |  /  /\  \   | |_| |  |  |/  /          
                |  |  |   |  __  | /  /__\  \  |    /   |      \           
                |  |  |   | |  | | |   __   |  |    \   |  |\   \          
                \     /   | |  | | |  |  |  |  | |\  \  |  | \   \       
                 \___/    |_|  |_| |__|  |__|  |_| \__\ |__|  \__/        
                                                                              
                      - O R C A' S   B I G   F R I E N D -                    
                                      &                                       
                       - I N T E G R A L  F E E D E R -                       
                                                                              
 v1 FN, 2020, v2 2021, v3 2022-2024                                           
------------------------------------------------------------------------------


----------------------
SHARK INTEGRAL PACKAGE
----------------------

Number of atoms                             ...     39
Number of basis functions                   ...    315
Number of shells                            ...    147
Maximum angular momentum                    ...      2
Integral batch strategy                     ... SHARK/LIBINT Hybrid
RI-J (if used) integral strategy            ... SPLIT-RIJ (Revised 2003 algorithm where possible)
Printlevel                                  ...      1
Contraction scheme used                     ... SEGMENTED contraction
Prescreening option                         ... SCHWARTZ
   Thresh                                   ... 2.500e-11
   Tcut                                     ... 2.500e-12
   Tpresel                                  ... 2.500e-12 
Coulomb Range Separation                    ... NOT USED
Exchange Range Separation                   ... Long Range
   Mu parameter                             ... 3.000e-01
   Scaling (regular/separated)              ... 1.670e-01 8.330e-01
Multipole approximations                    ... NOT USED
Finite Nucleus Model                        ... NOT USED
CABS basis                                  ... NOT available
Auxiliary Coulomb fitting basis             ... AVAILABLE
   # of basis functions in Aux-J            ...    999
   # of shells in Aux-J                     ...    345
   Maximum angular momentum in Aux-J        ...      4
Auxiliary J/K fitting basis                 ... NOT available
Auxiliary Correlation fitting basis         ... NOT available
Auxiliary 'external' fitting basis          ... NOT available

Checking pre-screening integrals            ... done (  0.0 sec) Dimension = 147
Check shell pair data                       ... done (  0.0 sec)
Shell pair information
Shell pair cut-off parameter TPreSel        ...   2.5e-12
Total number of shell pairs                 ...     10878
Shell pairs after pre-screening             ...     10876
Total number of primitive shell pairs       ...    102036
Primitive shell pairs kept                  ...     81777
          la=0 lb=0:   3081 shell pairs
          la=1 lb=0:   4212 shell pairs
          la=1 lb=1:   1483 shell pairs
          la=2 lb=0:   1170 shell pairs
          la=2 lb=1:    810 shell pairs
          la=2 lb=2:    120 shell pairs

Calculating one electron integrals          ... done (  0.0 sec)
Calculating ECP integrals                   ... done (  0.2 sec)
Calculating RI/J V-Matrix + Cholesky decomp.... done (  0.0 sec)
Calculating Nuclear repulsion               ... done (  0.0 sec) ENN=    606.135164962877 Eh

Diagonalization of the overlap matrix:
Smallest eigenvalue                        ... 8.079e-04
Time for diagonalization                   ...    0.014 sec
Threshold for overlap eigenvalues          ... 1.000e-07
Number of eigenvalues below threshold      ... 0
Time for construction of square roots      ...    0.008 sec
Total time needed                          ...    0.024 sec

-------------------
DFT GRID GENERATION
-------------------

General Integration Accuracy     IntAcc      ... 4.388
Radial Grid Type                 RadialGrid  ... OptM3 with GC (2021)
Angular Grid (max. ang.)         AngularGrid ... 4 (Lebedev-302)
Angular grid pruning method      GridPruning ... 4 (adaptive)
Weight generation scheme         WeightScheme... mBecke (2022)
Basis function cutoff            BFCut       ... 1.0000e-11
Integration weight cutoff        WCut        ... 1.0000e-14
Partially contracted basis set               ... off
Rotationally invariant grid construction     ... off
Angular grids for H and He will be reduced by one unit

Total number of grid points                  ...   163896
Total number of batches                      ...     2580
Average number of points per batch           ...       63
Average number of grid points per atom       ...     4202

--------------------
COSX GRID GENERATION
--------------------

GRIDX 1
-------
General Integration Accuracy     IntAcc      ... 3.816
Radial Grid Type                 RadialGrid  ... OptM3 with GC (2021)
Angular Grid (max. ang.)         AngularGrid ... 1 (Lebedev-50)
Angular grid pruning method      GridPruning ... 4 (adaptive)
Weight generation scheme         WeightScheme... mBecke (2022)
Basis function cutoff            BFCut       ... 1.0000e-11
Integration weight cutoff        WCut        ... 1.0000e-14
Partially contracted basis set               ... on
Rotationally invariant grid construction     ... off
Angular grids for H and He will be reduced by one unit

Total number of grid points                  ...    20890
Total number of batches                      ...      190
Average number of points per batch           ...      109
Average number of grid points per atom       ...      536
UseSFitting                                  ... on

GRIDX 2
-------
General Integration Accuracy     IntAcc      ... 4.020
Radial Grid Type                 RadialGrid  ... OptM3 with GC (2021)
Angular Grid (max. ang.)         AngularGrid ... 2 (Lebedev-110)
Angular grid pruning method      GridPruning ... 4 (adaptive)
Weight generation scheme         WeightScheme... mBecke (2022)
Basis function cutoff            BFCut       ... 1.0000e-11
Integration weight cutoff        WCut        ... 1.0000e-14
Partially contracted basis set               ... on
Rotationally invariant grid construction     ... off
Angular grids for H and He will be reduced by one unit

Total number of grid points                  ...    43087
Total number of batches                      ...      355
Average number of points per batch           ...      121
Average number of grid points per atom       ...     1105
UseSFitting                                  ... on

GRIDX 3
-------
General Integration Accuracy     IntAcc      ... 4.338
Radial Grid Type                 RadialGrid  ... OptM3 with GC (2021)
Angular Grid (max. ang.)         AngularGrid ... 3 (Lebedev-194)
Angular grid pruning method      GridPruning ... 4 (adaptive)
Weight generation scheme         WeightScheme... mBecke (2022)
Basis function cutoff            BFCut       ... 1.0000e-11
Integration weight cutoff        WCut        ... 1.0000e-14
Partially contracted basis set               ... on
Rotationally invariant grid construction     ... off
Angular grids for H and He will be reduced by one unit

Total number of grid points                  ...    93367
Total number of batches                      ...      748
Average number of points per batch           ...      124
Average number of grid points per atom       ...     2394
UseSFitting                                  ... on
Initializing property integral containers    ... done (  0.0 sec)

SHARK setup successfully completed in   5.1 seconds

Maximum memory used throughout the entire STARTUP-calculation: 52.5 MB


           ************************************************************
           *        Program running with 40 parallel MPI-processes    *
           *              working on a common directory               *
           ************************************************************
-------------------------------------------------------------------------------
                                 ORCA GUESS
                   Start orbitals & Density for SCF / CASSCF
-------------------------------------------------------------------------------

------------
SCF SETTINGS
------------
Hamiltonian:
 Density Functional     Method          .... DFT(GTOs)
 Exchange Functional    Exchange        .... WB97X-V
 Correlation Functional Correlation     .... WB97X-V
 Gradients option       PostSCFGGA      .... off
 Hybrid DFT is turned on
   Fraction HF Exchange ScalHFX         ....  0.167000
   Scaling of DF-GGA-X  ScalDFX         ....  0.000000
   Scaling of DF-GGA-C  ScalDFC         ....  1.000000
   Scaling of DF-LDA-C  ScalLDAC        ....  1.000000
   Perturbative correction              ....  0.000000
 Long-range corrected/Screened/Range-Separated Hybrid DFT is turned on
   Amount of maximum screened exact exchange              ....  0.833000
   Range separation parameter mu (erf(mu*r12)/r12)        ....  0.300000
   NL short-range parameter             ....  6.000000
   NL long-range parameter              ....  0.010000
 RI-approximation to the Coulomb term is turned on
   Number of AuxJ basis functions       .... 999
   RIJ-COSX (HFX calculated with COS-X)).... on


General Settings:
 Integral files         IntName         .... ./output/gamma_patchoulene/gamma_patchoulene
 Hartree-Fock type      HFTyp           .... RHF
 Total Charge           Charge          ....    0
 Multiplicity           Mult            ....    1
 Number of Electrons    NEL             ....   84
 Basis Dimension        Dim             ....  315
 Nuclear Repulsion      ENuc            ....    606.1351649629 Eh

Convergence Acceleration:
 AO-DIIS                CNVDIIS         .... on
   Start iteration      DIISMaxIt       ....    12
   Startup error        DIISStart       ....  0.200000
   # of expansion vecs  DIISMaxEq       ....     5
   Bias factor          DIISBfac        ....   1.050
   Max. coefficient     DIISMaxC        ....  10.000
 MO-DIIS                CNVKDIIS        .... off
 Trust-Rad. Augm. Hess. CNVTRAH         .... auto
   Auto Start mean grad. ratio tolernc. ....  1.125000
   Auto Start start iteration           ....    50
   Auto Start num. interpolation iter.  ....    10
   Max. Number of Micro iterations      ....    24
   Max. Number of Macro iterations      .... Maxiter - #DIIS iter
   Number of Davidson start vectors     ....     2
   Converg. threshold    (grad. norm)   ....   1.000e-05
   Grad. Scal. Fac. for Micro threshold ....   0.100
   Minimum threshold for Micro iter.    ....   1.000e-02
   NR start threshold (gradient norm)   ....   1.000e-04
   Initial trust radius                 ....   0.400
   Minimum AH scaling param. (alpha)    ....   1.000
   Maximum AH scaling param. (alpha)    .... 1000.000
   Quad. conv. algorithm                .... NR
   White noise on init. David. guess    .... on
   Maximum white noise                  ....   0.010
   Pseudo random numbers                .... off
   Inactive MOs                         .... canonical
   Orbital update algorithm             .... Taylor
   Preconditioner                       .... Diag
   Full preconditioner red. dimension   ....   250
 SOSCF                  CNVSOSCF        .... on
   Start iteration      SOSCFMaxIt      ....   150
   Startup grad/error   SOSCFStart      ....  0.003300
   Hessian update       SOSCFHessUp     .... L-BFGS
 Level Shifting         CNVShift        .... on
   Level shift para.    LevelShift      ....    0.2500
   Turn off err/grad.   ShiftErr        ....    0.0010
 Zerner damping         CNVZerner       .... off
 Static damping         CNVDamp         .... on
   Fraction old density DampFac         ....    0.7000
   Max. Damping (<1)    DampMax         ....    0.9800
   Min. Damping (>=0)   DampMin         ....    0.0000
   Turn off err/grad.   DampErr         ....    0.1000

SCF Procedure:
 Maximum # iterations   MaxIter         ....   125
 SCF integral mode      SCFMode         .... Direct
   Integral package                     .... SHARK and LIBINT hybrid scheme
 Reset frequency        DirectResetFreq ....    20
 Integral Threshold     Thresh          ....  2.500e-11 Eh
 Primitive CutOff       TCut            ....  2.500e-12 Eh

Convergence Tolerance:
 Convergence Check Mode ConvCheckMode   .... Total+1el-Energy
 Convergence forced     ConvForced      .... 0
 Energy Change          TolE            ....  1.000e-08 Eh
 1-El. energy change                    ....  1.000e-05 Eh
 Orbital Gradient       TolG            ....  1.000e-05
 Orbital Rotation angle TolX            ....  1.000e-05
 DIIS Error             TolErr          ....  5.000e-07

------------------------------
INITIAL GUESS: MODEL POTENTIAL
------------------------------
Loading Hartree-Fock densities                     ... done
Atomic calculation to generate a density for atom 0 (C  with ECP)
  Multiplicity assumed   :    1
  Atomic configuration   : 1s2 2s2 2p2 
  Number of open shells  : 1
  Command: /home/aspe232/Project/Software/ORCA/6_0_1/build/orca ./output/gamma_patchoulene/gamma_patchoulene_atom6.inp "" > ./output/gamma_patchoulene/gamma_patchoulene_atom6.out
Returned from the atomic calculation with res=0
Calculating cut-offs                               ... done
Initializing the effective Hamiltonian             ... done
Setting up the integral package (SHARK)            ... done
Starting the Coulomb interaction                   ... done (   0.1 sec)
Making the grid                                    ... done (   1.3 sec)
Mapping shells                                     ... done
Starting the XC term evaluation                    ... done (   0.1 sec)
  promolecular density results
     # of electrons  =    113.979071497
     EX              =    -55.413661846
     EC              =     -4.587097957
     EX+EC           =    -60.000759802
Transforming the Hamiltonian                       ... done (   0.0 sec)
Diagonalizing the Hamiltonian                      ... done (   0.0 sec)
Back transforming the eigenvectors                 ... done (   0.0 sec)
Now organizing SCF variables                       ... done
                      ------------------
                      INITIAL GUESS DONE (   2.3 sec)
                      ------------------
             **** ENERGY FILE WAS UPDATED (./output/gamma_patchoulene/gamma_patchoulene.en.tmp) ****
Finished Guess after   3.3 sec
Maximum memory used throughout the entire GUESS-calculation: 35.4 MB


           ************************************************************
           *        Program running with 40 parallel MPI-processes    *
           *              working on a common directory               *
           ************************************************************

-------------------------------------------------------------------------------------------
                                      ORCA LEAN-SCF
                              memory conserving SCF solver
-------------------------------------------------------------------------------------------

----------------------------------------D-I-I-S--------------------------------------------
Iteration    Energy (Eh)           Delta-E    RMSDP     MaxDP     DIISErr   Damp  Time(sec)
-------------------------------------------------------------------------------------------
               ***  Starting incremental Fock matrix formation  ***
    1    -99.2118983589875825     0.00e+00  3.55e-03  7.67e-02  1.97e-01  0.700   9.0
    2    -99.4880409504660292    -2.76e-01  2.58e-03  5.48e-02  1.16e-01  0.700   6.6
                               ***Turning on AO-DIIS***
    3    -99.6262302606138519    -1.38e-01  1.39e-03  3.23e-02  5.87e-02  0.700   6.1
    4    -99.7077788844701445    -8.15e-02  3.07e-03  6.94e-02  3.60e-02  0.000   6.0
    5    -99.8802732351329041    -1.72e-01  2.40e-04  7.11e-03  6.74e-03  0.000   6.1
                              *** Initializing SOSCF ***
---------------------------------------S-O-S-C-F--------------------------------------
Iteration    Energy (Eh)           Delta-E    RMSDP     MaxDP     MaxGrad    Time(sec)
--------------------------------------------------------------------------------------
    6    -99.8808375287484296    -5.64e-04  1.10e-04  1.50e-03  1.22e-03     6.3
               *** Restarting incremental Fock matrix formation ***
    7    -99.8808298551606413     7.67e-06  6.13e-05  1.07e-03  2.24e-04     9.0
    8    -99.8808420233089009    -1.22e-05  3.73e-05  6.91e-04  2.40e-04     7.8
    9    -99.8808448788691976    -2.86e-06  1.37e-05  1.88e-04  6.34e-05     7.8
   10    -99.8808454084355617    -5.30e-07  2.37e-06  5.45e-05  1.26e-05     7.6
   11    -99.8808454024347157     6.00e-09  8.50e-07  1.93e-05  5.32e-06     7.3
                 **** Energy Check signals convergence ****

               *****************************************************
               *                     SUCCESS                       *
               *           SCF CONVERGED AFTER  11 CYCLES          *
               *****************************************************

Recomputing exchange energy using gridx3       ... done (   10.465 sec)
Old exchange energy                            :    -15.901849107 Eh
New exchange energy                            :    -15.901876586 Eh
Exchange energy change after final integration :     -0.000027479 Eh
Total energy after final integration           :    -99.880872881 Eh
             **** ENERGY FILE WAS UPDATED (./output/gamma_patchoulene/gamma_patchoulene.en.tmp) ****

----------------
TOTAL SCF ENERGY
----------------

Total Energy       :        -99.88087288120833 Eh           -2717.89673 eV

Components:
Nuclear Repulsion  :        606.13516496287696 Eh           16493.77637 eV
Electronic Energy  :       -706.01601036531167 Eh          -19211.67234 eV
One Electron Energy:      -1351.27038964314920 Eh          -36769.93665 eV
Two Electron Energy:        645.25437927783753 Eh           17558.26431 eV

Virial components:
Potential Energy   :       -177.80160754293388 Eh           -4838.22771 eV
Kinetic Energy     :         77.92073466172553 Eh            2120.33099 eV
Virial Ratio       :          2.28182663208731

DFT components:
N(Alpha)           :       41.999812463396 electrons
N(Beta)            :       41.999812463396 electrons
N(Total)           :       83.999624926792 electrons
E(X)               :      -16.103967410105 Eh       
E(C)               :       -3.157009986957 Eh       
E(XC)              :      -19.260977397062 Eh       

---------------
SCF CONVERGENCE
---------------

  Last Energy change         ...   -6.0008e-09  Tolerance :   1.0000e-08
  Last MAX-Density change    ...    1.9330e-05  Tolerance :   1.0000e-07
  Last RMS-Density change    ...    8.4956e-07  Tolerance :   5.0000e-09
  Last DIIS Error            ...    1.2226e-03  Tolerance :   5.0000e-07
  Last Orbital Gradient      ...    5.3204e-06  Tolerance :   1.0000e-05
  Last Orbital Rotation      ...    1.3362e-05  Tolerance :   1.0000e-05


----------------
ORBITAL ENERGIES
----------------

  NO   OCC          E(Eh)            E(eV) 
   0   2.0000      -1.019872       -27.7521 
   1   2.0000      -0.951970       -25.9044 
   2   2.0000      -0.922032       -25.0898 
   3   2.0000      -0.902991       -24.5716 
   4   2.0000      -0.870290       -23.6818 
   5   2.0000      -0.857703       -23.3393 
   6   2.0000      -0.813209       -22.1285 
   7   2.0000      -0.805738       -21.9253 
   8   2.0000      -0.785499       -21.3745 
   9   2.0000      -0.754465       -20.5300 
  10   2.0000      -0.739726       -20.1290 
  11   2.0000      -0.681836       -18.5537 
  12   2.0000      -0.670570       -18.2471 
  13   2.0000      -0.647439       -17.6177 
  14   2.0000      -0.621010       -16.8985 
  15   2.0000      -0.601573       -16.3696 
  16   2.0000      -0.582413       -15.8483 
  17   2.0000      -0.578260       -15.7353 
  18   2.0000      -0.557929       -15.1820 
  19   2.0000      -0.545815       -14.8524 
  20   2.0000      -0.543374       -14.7859 
  21   2.0000      -0.528479       -14.3807 
  22   2.0000      -0.517652       -14.0860 
  23   2.0000      -0.516261       -14.0482 
  24   2.0000      -0.512285       -13.9400 
  25   2.0000      -0.498627       -13.5683 
  26   2.0000      -0.488775       -13.3002 
  27   2.0000      -0.481761       -13.1094 
  28   2.0000      -0.474104       -12.9010 
  29   2.0000      -0.462220       -12.5777 
  30   2.0000      -0.458412       -12.4740 
  31   2.0000      -0.450274       -12.2526 
  32   2.0000      -0.449081       -12.2201 
  33   2.0000      -0.429204       -11.6792 
  34   2.0000      -0.421617       -11.4728 
  35   2.0000      -0.418146       -11.3783 
  36   2.0000      -0.410752       -11.1771 
  37   2.0000      -0.397267       -10.8102 
  38   2.0000      -0.395772       -10.7695 
  39   2.0000      -0.390994       -10.6395 
  40   2.0000      -0.382235       -10.4012 
  41   2.0000      -0.334840        -9.1115 
  42   0.0000       0.079834         2.1724 
  43   0.0000       0.088190         2.3998 
  44   0.0000       0.093188         2.5358 
  45   0.0000       0.100328         2.7301 
  46   0.0000       0.102160         2.7799 
  47   0.0000       0.114853         3.1253 
  48   0.0000       0.118765         3.2318 
  49   0.0000       0.126653         3.4464 
  50   0.0000       0.129312         3.5187 
  51   0.0000       0.132598         3.6082 
  52   0.0000       0.149982         4.0812 
*Only the first 10 virtual orbitals were printed.

                    ********************************
                    * MULLIKEN POPULATION ANALYSIS *
                    ********************************

-----------------------
MULLIKEN ATOMIC CHARGES
-----------------------
   0 C :   -0.077140
   1 C :   -0.073553
   2 C :   -0.032729
   3 C :   -0.014421
   4 C :   -0.176179
   5 C :   -0.030128
   6 C :   -0.023255
   7 C :   -0.045642
   8 C :   -0.154924
   9 C :   -0.018153
  10 C :   -0.018895
  11 C :   -0.056504
  12 C :   -0.063959
  13 C :   -0.028595
  14 C :   -0.028550
  15 H :    0.028445
  16 H :    0.042623
  17 H :    0.041184
  18 H :    0.037044
  19 H :    0.020376
  20 H :    0.040745
  21 H :    0.045630
  22 H :    0.036357
  23 H :    0.049555
  24 H :    0.038122
  25 H :    0.031240
  26 H :    0.040864
  27 H :    0.030818
  28 H :    0.034029
  29 H :    0.038378
  30 H :    0.037302
  31 H :    0.036815
  32 H :    0.003500
  33 H :    0.039440
  34 H :    0.035312
  35 H :    0.048793
  36 H :    0.044484
  37 H :    0.021372
  38 H :    0.020201
Sum of atomic charges:    0.0000000

--------------------------------
MULLIKEN REDUCED ORBITAL CHARGES
--------------------------------
  0 C s       :     0.958115  s :     0.958115
      pz      :     1.038939  p :     3.043726
      px      :     1.013948
      py      :     0.990839
      dz2     :     0.019834  d :     0.075299
      dxz     :     0.009208
      dyz     :     0.011625
      dx2y2   :     0.021100
      dxy     :     0.013533

  1 C s       :     1.033752  s :     1.033752
      pz      :     0.951754  p :     2.918470
      px      :     0.954973
      py      :     1.011743
      dz2     :     0.027537  d :     0.121331
      dxz     :     0.025059
      dyz     :     0.020605
      dx2y2   :     0.021587
      dxy     :     0.026544

  2 C s       :     0.990103  s :     0.990103
      pz      :     0.956609  p :     2.944490
      px      :     0.969448
      py      :     1.018434
      dz2     :     0.019384  d :     0.098136
      dxz     :     0.020337
      dyz     :     0.022099
      dx2y2   :     0.018009
      dxy     :     0.018307

  3 C s       :     0.973314  s :     0.973314
      pz      :     0.979639  p :     2.945277
      px      :     0.939349
      py      :     1.026289
      dz2     :     0.023402  d :     0.095829
      dxz     :     0.024367
      dyz     :     0.008281
      dx2y2   :     0.024548
      dxy     :     0.015231

  4 C s       :     1.046337  s :     1.046337
      pz      :     1.004360  p :     2.991189
      px      :     0.984170
      py      :     1.002659
      dz2     :     0.024823  d :     0.138654
      dxz     :     0.033584
      dyz     :     0.025070
      dx2y2   :     0.023276
      dxy     :     0.031901

  5 C s       :     1.018736  s :     1.018736
      pz      :     0.972023  p :     2.896793
      px      :     0.940527
      py      :     0.984244
      dz2     :     0.017244  d :     0.114599
      dxz     :     0.025415
      dyz     :     0.027833
      dx2y2   :     0.024043
      dxy     :     0.020064

  6 C s       :     0.981066  s :     0.981066
      pz      :     1.010377  p :     2.947650
      px      :     0.951201
      py      :     0.986072
      dz2     :     0.027575  d :     0.094539
      dxz     :     0.012769
      dyz     :     0.011629
      dx2y2   :     0.018183
      dxy     :     0.024382

  7 C s       :     1.028850  s :     1.028850
      pz      :     0.928974  p :     2.896872
      px      :     0.951013
      py      :     1.016885
      dz2     :     0.029429  d :     0.119921
      dxz     :     0.025153
      dyz     :     0.016634
      dx2y2   :     0.027102
      dxy     :     0.021603

  8 C s       :     1.074820  s :     1.074820
      pz      :     0.963437  p :     2.939278
      px      :     0.997707
      py      :     0.978134
      dz2     :     0.030821  d :     0.140826
      dxz     :     0.028219
      dyz     :     0.026376
      dx2y2   :     0.026051
      dxy     :     0.029358

  9 C s       :     0.943412  s :     0.943412
      pz      :     1.015358  p :     3.002273
      px      :     0.961239
      py      :     1.025676
      dz2     :     0.019622  d :     0.072468
      dxz     :     0.012211
      dyz     :     0.008097
      dx2y2   :     0.009931
      dxy     :     0.022607

 10 C s       :     0.943424  s :     0.943424
      pz      :     1.006730  p :     3.002085
      px      :     1.004026
      py      :     0.991330
      dz2     :     0.021761  d :     0.073386
      dxz     :     0.009762
      dyz     :     0.009782
      dx2y2   :     0.014474
      dxy     :     0.017607

 11 C s       :     0.997542  s :     0.997542
      pz      :     1.031787  p :     2.962782
      px      :     1.005726
      py      :     0.925269
      dz2     :     0.024721  d :     0.096180
      dxz     :     0.010286
      dyz     :     0.016500
      dx2y2   :     0.026314
      dxy     :     0.018359

 12 C s       :     0.997422  s :     0.997422
      pz      :     0.987063  p :     2.970820
      px      :     1.030019
      py      :     0.953739
      dz2     :     0.020313  d :     0.095716
      dxz     :     0.019779
      dyz     :     0.018156
      dx2y2   :     0.016501
      dxy     :     0.020967

 13 C s       :     1.055361  s :     1.055361
      pz      :     0.926796  p :     2.854168
      px      :     0.944337
      py      :     0.983035
      dz2     :     0.025563  d :     0.119065
      dxz     :     0.023613
      dyz     :     0.024218
      dx2y2   :     0.022552
      dxy     :     0.023120

 14 C s       :     0.977145  s :     0.977145
      pz      :     0.982397  p :     2.987013
      px      :     1.002192
      py      :     1.002424
      dz2     :     0.016987  d :     0.064392
      dxz     :     0.010048
      dyz     :     0.013845
      dx2y2   :     0.008894
      dxy     :     0.014619

 15 H s       :     0.926961  s :     0.926961
      pz      :     0.012459  p :     0.044594
      px      :     0.011951
      py      :     0.020184

 16 H s       :     0.914252  s :     0.914252
      pz      :     0.023023  p :     0.043125
      px      :     0.009990
      py      :     0.010112

 17 H s       :     0.915774  s :     0.915774
      pz      :     0.011578  p :     0.043043
      px      :     0.021170
      py      :     0.010294

 18 H s       :     0.922669  s :     0.922669
      pz      :     0.010552  p :     0.040287
      px      :     0.012082
      py      :     0.017654

 19 H s       :     0.935546  s :     0.935546
      pz      :     0.013023  p :     0.044077
      px      :     0.010257
      py      :     0.020797

 20 H s       :     0.916998  s :     0.916998
      pz      :     0.011804  p :     0.042257
      px      :     0.016182
      py      :     0.014271

 21 H s       :     0.910825  s :     0.910825
      pz      :     0.009275  p :     0.043545
      px      :     0.011008
      py      :     0.023262

 22 H s       :     0.920513  s :     0.920513
      pz      :     0.020244  p :     0.043130
      px      :     0.012394
      py      :     0.010492

 23 H s       :     0.909756  s :     0.909756
      pz      :     0.015363  p :     0.040689
      px      :     0.009001
      py      :     0.016325

 24 H s       :     0.919830  s :     0.919830
      pz      :     0.022762  p :     0.042047
      px      :     0.009494
      py      :     0.009792

 25 H s       :     0.923521  s :     0.923521
      pz      :     0.010817  p :     0.045239
      px      :     0.015183
      py      :     0.019239

 26 H s       :     0.919261  s :     0.919261
      pz      :     0.008663  p :     0.039874
      px      :     0.009780
      py      :     0.021432

 27 H s       :     0.925756  s :     0.925756
      pz      :     0.022167  p :     0.043426
      px      :     0.009826
      py      :     0.011433

 28 H s       :     0.922762  s :     0.922762
      pz      :     0.010005  p :     0.043208
      px      :     0.013178
      py      :     0.020026

 29 H s       :     0.915313  s :     0.915313
      pz      :     0.012992  p :     0.046309
      px      :     0.015169
      py      :     0.018148

 30 H s       :     0.919514  s :     0.919514
      pz      :     0.009841  p :     0.043183
      px      :     0.013678
      py      :     0.019665

 31 H s       :     0.919002  s :     0.919002
      pz      :     0.022602  p :     0.044182
      px      :     0.010519
      py      :     0.011061

 32 H s       :     0.949787  s :     0.949787
      pz      :     0.013064  p :     0.046713
      px      :     0.022235
      py      :     0.011414

 33 H s       :     0.918517  s :     0.918517
      pz      :     0.022151  p :     0.042043
      px      :     0.009308
      py      :     0.010584

 34 H s       :     0.921983  s :     0.921983
      pz      :     0.011459  p :     0.042705
      px      :     0.021070
      py      :     0.010177

 35 H s       :     0.907909  s :     0.907909
      pz      :     0.017617  p :     0.043299
      px      :     0.014513
      py      :     0.011169

 36 H s       :     0.913000  s :     0.913000
      pz      :     0.009186  p :     0.042516
[...]
 81:   1510.59   0.000232    1.17  0.000048  (-0.002381 -0.004989  0.004166)
 82:   1515.84   0.000911    4.61  0.000188  (-0.007292  0.009825 -0.006157)
 83:   1516.98   0.001809    9.14  0.000372  ( 0.004926  0.018265 -0.003791)
 84:   1520.24   0.001659    8.38  0.000341  ( 0.016994 -0.007167  0.000630)
 85:   1524.49   0.001679    8.49  0.000344  ( 0.009336  0.009706 -0.012744)
 86:   1528.47   0.000951    4.81  0.000194  (-0.001929  0.000140 -0.013800)
 87:   1533.86   0.003347   16.92  0.000681  ( 0.016752  0.009140  0.017799)
 88:   1541.19   0.002163   10.93  0.000438  (-0.011759  0.005501 -0.016418)
 89:   1546.30   0.002239   11.32  0.000452  ( 0.006753 -0.016638 -0.011380)
 90:   1551.25   0.000176    0.89  0.000035  ( 0.000143 -0.005870  0.000976)
 91:   1563.77   0.000992    5.01  0.000198  ( 0.002109  0.010153 -0.009509)
 92:   1767.40   0.008029   40.57  0.001418  ( 0.012113 -0.032159 -0.015385)
 93:   3089.31   0.003079   15.56  0.000311  (-0.005000 -0.016167  0.004962)
 94:   3096.24   0.004798   24.25  0.000484  (-0.018253  0.010207  0.006801)
 95:   3098.18   0.004399   22.23  0.000443  ( 0.017366 -0.002876 -0.011544)
 96:   3099.33   0.000458    2.32  0.000046  (-0.005769  0.002897 -0.002117)
 97:   3104.09   0.000506    2.56  0.000051  ( 0.006091  0.003546  0.001103)
 98:   3105.61   0.013023   65.81  0.001309  (-0.003139 -0.025796  0.025166)
 99:   3112.02   0.004331   21.89  0.000434  (-0.011784  0.012824  0.011447)
100:   3114.44   0.007814   39.49  0.000783  ( 0.024857  0.008748  0.009413)
101:   3121.51   0.014135   71.43  0.001413  ( 0.005352  0.031261  0.020181)
102:   3126.21   0.012296   62.14  0.001227  (-0.019468 -0.004024 -0.028848)
103:   3144.23   0.004746   23.98  0.000471  (-0.004935 -0.008165  0.019493)
104:   3153.02   0.002860   14.45  0.000283  (-0.001577  0.005934 -0.015663)
105:   3163.46   0.001208    6.11  0.000119  (-0.005292 -0.001482  0.009433)
106:   3167.51   0.006208   31.37  0.000612  (-0.023008  0.005450  0.007246)
107:   3173.73   0.001044    5.27  0.000103  ( 0.002998  0.006547  0.007125)
108:   3179.46   0.003441   17.39  0.000338  (-0.000425 -0.018034  0.003508)
109:   3180.49   0.010924   55.20  0.001072  (-0.023332 -0.018421 -0.013716)
110:   3183.02   0.000643    3.25  0.000063  (-0.000797  0.007886  0.000446)
111:   3185.05   0.000553    2.80  0.000054  ( 0.004692  0.001297  0.005524)
112:   3189.21   0.010528   53.21  0.001030  (-0.009773 -0.020975  0.022242)
113:   3210.52   0.002185   11.04  0.000212  (-0.006510  0.012974  0.001293)
114:   3228.75   0.002668   13.49  0.000258  (-0.008929  0.011203 -0.007258)
115:   3231.27   0.002998   15.15  0.000290  (-0.013397  0.006518  0.008221)
116:   3304.61   0.001231    6.22  0.000116  (-0.007169  0.002421 -0.007679)

* The epsilon (eps) is given for a Dirac delta lineshape.
** The dipole moment derivative (T) already includes vibrational overlap.

The first frequency considered to be a vibration is 6
The total number of vibrations considered is 111


--------------------------
THERMOCHEMISTRY AT 298.15K
--------------------------

Temperature         ...   298.15 K
Pressure            ...     1.00 atm
Total Mass          ...   204.36 AMU
Quasi RRHO          ...     True
Cut-Off Frequency   ...     1.00 cm^-1

Throughout the following assumptions are being made:
  (1) The electronic state is orbitally nondegenerate
  (2) There are no thermally accessible electronically excited states
  (3) Hindered rotations indicated by low frequency modes are not
      treated as such but are treated as vibrations and this may
      cause some error
  (4) All equations used are the standard statistical mechanics
      equations for an ideal gas
  (5) All vibrations are strictly harmonic

freq.      88.87  E(vib)   ...       0.47 
freq.     126.30  E(vib)   ...       0.43 
freq.     178.29  E(vib)   ...       0.37 
freq.     200.71  E(vib)   ...       0.35 
freq.     210.63  E(vib)   ...       0.34 
freq.     224.31  E(vib)   ...       0.33 
freq.     262.97  E(vib)   ...       0.29 
freq.     266.02  E(vib)   ...       0.29 
freq.     290.58  E(vib)   ...       0.27 
freq.     308.15  E(vib)   ...       0.26 
freq.     318.10  E(vib)   ...       0.25 
freq.     344.56  E(vib)   ...       0.23 
freq.     368.86  E(vib)   ...       0.21 
freq.     398.46  E(vib)   ...       0.20 
freq.     401.12  E(vib)   ...       0.19 
freq.     424.32  E(vib)   ...       0.18 
freq.     468.47  E(vib)   ...       0.16 
freq.     473.15  E(vib)   ...       0.15 
freq.     505.55  E(vib)   ...       0.14 
freq.     527.53  E(vib)   ...       0.13 
freq.     561.05  E(vib)   ...       0.11 
freq.     579.25  E(vib)   ...       0.11 
freq.     635.18  E(vib)   ...       0.09 
freq.     650.21  E(vib)   ...       0.08 
freq.     673.07  E(vib)   ...       0.08 
freq.     731.84  E(vib)   ...       0.06 
freq.     754.83  E(vib)   ...       0.06 
freq.     812.73  E(vib)   ...       0.05 
freq.     838.88  E(vib)   ...       0.04 
freq.     863.68  E(vib)   ...       0.04 
freq.     881.12  E(vib)   ...       0.04 
freq.     893.71  E(vib)   ...       0.03 
freq.     924.40  E(vib)   ...       0.03 
freq.     933.69  E(vib)   ...       0.03 
freq.     968.40  E(vib)   ...       0.03 
freq.     976.71  E(vib)   ...       0.03 
freq.     977.85  E(vib)   ...       0.03 
freq.     982.31  E(vib)   ...       0.02 
freq.     999.31  E(vib)   ...       0.02 
freq.    1015.56  E(vib)   ...       0.02 
freq.    1024.21  E(vib)   ...       0.02 
freq.    1037.15  E(vib)   ...       0.02 
freq.    1044.31  E(vib)   ...       0.02 
freq.    1049.39  E(vib)   ...       0.02 
freq.    1082.78  E(vib)   ...       0.02 
freq.    1096.44  E(vib)   ...       0.02 
freq.    1119.72  E(vib)   ...       0.01 
freq.    1139.61  E(vib)   ...       0.01 
freq.    1161.25  E(vib)   ...       0.01 
freq.    1185.00  E(vib)   ...       0.01 
freq.    1205.15  E(vib)   ...       0.01 
freq.    1211.45  E(vib)   ...       0.01 
freq.    1220.79  E(vib)   ...       0.01 
freq.    1241.41  E(vib)   ...       0.01 
freq.    1258.02  E(vib)   ...       0.01 
freq.    1268.66  E(vib)   ...       0.01 
freq.    1270.57  E(vib)   ...       0.01 
freq.    1287.20  E(vib)   ...       0.01 
freq.    1298.38  E(vib)   ...       0.01 
freq.    1332.12  E(vib)   ...       0.01 
freq.    1336.33  E(vib)   ...       0.01 
freq.    1350.32  E(vib)   ...       0.01 
freq.    1362.72  E(vib)   ...       0.01 
freq.    1367.55  E(vib)   ...       0.01 
freq.    1386.51  E(vib)   ...       0.00 
freq.    1390.48  E(vib)   ...       0.00 
freq.    1398.39  E(vib)   ...       0.00 
freq.    1409.42  E(vib)   ...       0.00 
freq.    1415.99  E(vib)   ...       0.00 
freq.    1418.61  E(vib)   ...       0.00 
freq.    1429.23  E(vib)   ...       0.00 
freq.    1438.34  E(vib)   ...       0.00 
freq.    1449.33  E(vib)   ...       0.00 
freq.    1455.30  E(vib)   ...       0.00 
freq.    1479.61  E(vib)   ...       0.00 
freq.    1510.59  E(vib)   ...       0.00 
freq.    1515.84  E(vib)   ...       0.00 
freq.    1516.98  E(vib)   ...       0.00 
freq.    1520.24  E(vib)   ...       0.00 
freq.    1524.49  E(vib)   ...       0.00 
freq.    1528.47  E(vib)   ...       0.00 
freq.    1533.86  E(vib)   ...       0.00 
freq.    1541.19  E(vib)   ...       0.00 
freq.    1546.30  E(vib)   ...       0.00 
freq.    1551.25  E(vib)   ...       0.00 
freq.    1563.77  E(vib)   ...       0.00 
freq.    1767.40  E(vib)   ...       0.00 
freq.    3089.31  E(vib)   ...       0.00 
freq.    3096.24  E(vib)   ...       0.00 
freq.    3098.18  E(vib)   ...       0.00 
freq.    3099.33  E(vib)   ...       0.00 
freq.    3104.09  E(vib)   ...       0.00 
freq.    3105.61  E(vib)   ...       0.00 
freq.    3112.02  E(vib)   ...       0.00 
freq.    3114.44  E(vib)   ...       0.00 
freq.    3121.51  E(vib)   ...       0.00 
freq.    3126.21  E(vib)   ...       0.00 
freq.    3144.23  E(vib)   ...       0.00 
freq.    3153.02  E(vib)   ...       0.00 
freq.    3163.46  E(vib)   ...       0.00 
freq.    3167.51  E(vib)   ...       0.00 
freq.    3173.73  E(vib)   ...       0.00 
freq.    3179.46  E(vib)   ...       0.00 
freq.    3180.49  E(vib)   ...       0.00 
freq.    3183.02  E(vib)   ...       0.00 
freq.    3185.05  E(vib)   ...       0.00 
freq.    3189.21  E(vib)   ...       0.00 
freq.    3210.52  E(vib)   ...       0.00 
freq.    3228.75  E(vib)   ...       0.00 
freq.    3231.27  E(vib)   ...       0.00 
freq.    3304.61  E(vib)   ...       0.00 

------------
INNER ENERGY
------------

The inner energy is: U= E(el) + E(ZPE) + E(vib) + E(rot) + E(trans)
    E(el)   - is the total energy from the electronic structure calculation
              = E(kin-el) + E(nuc-el) + E(el-el) + E(nuc-nuc)
    E(ZPE)  - the the zero temperature vibrational energy from the frequency calculation
    E(vib)  - the the finite temperature correction to E(ZPE) due to population
              of excited vibrational states
    E(rot)  - is the rotational thermal energy
    E(trans)- is the translational thermal energy

Summary of contributions to the inner energy U:
Electronic energy                ...    -99.95309456 Eh
Zero point energy                ...      0.36916370 Eh     231.65 kcal/mol
Thermal vibrational correction   ...      0.01051842 Eh       6.60 kcal/mol
Thermal rotational correction    ...      0.00141627 Eh       0.89 kcal/mol
Thermal translational correction ...      0.00141627 Eh       0.89 kcal/mol
-----------------------------------------------------------------------
Total thermal energy                    -99.57057990 Eh


Summary of corrections to the electronic energy:
(perhaps to be used in another calculation)
Total thermal correction                  0.01335096 Eh       8.38 kcal/mol
Non-thermal (ZPE) correction              0.36916370 Eh     231.65 kcal/mol
-----------------------------------------------------------------------
Total correction                          0.38251466 Eh     240.03 kcal/mol


--------
ENTHALPY
--------

The enthalpy is H = U + kB*T
                kB is Boltzmann's constant
Total thermal energy              ...    -99.57057990 Eh 
Thermal Enthalpy correction       ...      0.00094421 Eh       0.59 kcal/mol
-----------------------------------------------------------------------
Total Enthalpy                    ...    -99.56963569 Eh


Note: Only C1 symmetry has been detected, increase convergence thresholds 
      if your molecule has a higher symmetry. Symmetry factor of 1.0 is   
      used for the rotational entropy correction. 
 

Note: Rotational entropy computed according to Herzberg 
Infrared and Raman Spectra, Chapter V,1, Van Nostrand Reinhold, 1945 
Point Group:  C1, Symmetry Number:   1  
Rotational constants in cm-1:     0.030196     0.019749     0.018459 

Vibrational entropy computed according to the QRRHO of S. Grimme
Chem.Eur.J. 2012 18 9955 using a reference frequency of 100.0 cm-1


-------
ENTROPY
-------

The entropy contributions are T*S = T*(S(el)+S(vib)+S(rot)+S(trans))
     S(el)   - electronic entropy
     S(vib)  - vibrational entropy
     S(rot)  - rotational entropy
     S(trans)- translational entropy
The entropies will be listed as multiplied by the temperature to get
units of energy

Electronic entropy                ...      0.00000000 Eh      0.00 kcal/mol
Vibrational entropy               ...      0.01686907 Eh     10.59 kcal/mol
Rotational entropy                ...      0.01490062 Eh      9.35 kcal/mol
Translational entropy             ...      0.01988345 Eh     12.48 kcal/mol
-----------------------------------------------------------------------
Final entropy term                ...      0.05165314 Eh     32.41 kcal/mol

In case the symmetry of your molecule has not been determined correctly
or in case you have a reason to use a different symmetry number we print 
out the resulting rotational entropy values for sn=1,12:

 non-linear molecules -----------------------------------
|  sn= 1 | S(rot)=       0.01490062 Eh      9.35 kcal/mol|
|  sn= 2 | S(rot)=       0.01424616 Eh      8.94 kcal/mol|
|  sn= 3 | S(rot)=       0.01386333 Eh      8.70 kcal/mol|
|  sn= 4 | S(rot)=       0.01359170 Eh      8.53 kcal/mol|
|  sn= 5 | S(rot)=       0.01338101 Eh      8.40 kcal/mol|
|  sn= 6 | S(rot)=       0.01320887 Eh      8.29 kcal/mol|
|  sn= 7 | S(rot)=       0.01306332 Eh      8.20 kcal/mol|
|  sn= 8 | S(rot)=       0.01293725 Eh      8.12 kcal/mol|
|  sn= 9 | S(rot)=       0.01282604 Eh      8.05 kcal/mol|
|  sn=10 | S(rot)=       0.01272656 Eh      7.99 kcal/mol|
|  sn=11 | S(rot)=       0.01263657 Eh      7.93 kcal/mol|
|  sn=12 | S(rot)=       0.01255441 Eh      7.88 kcal/mol|
 linear molecules ---------------------------------------
|  Dinfh | S(rot)=       0.00909517 Eh      5.71 kcal/mol|
|  Cinfv | S(rot)=       0.00974962 Eh      6.12 kcal/mol|
 --------------------------------------------------------


-------------------
GIBBS FREE ENERGY
-------------------

The Gibbs free energy is G = H - T*S

Total enthalpy                    ...    -99.56963569 Eh 
Total entropy correction          ...     -0.05165314 Eh    -32.41 kcal/mol
-----------------------------------------------------------------------
Final Gibbs free energy         ...    -99.62128883 Eh

For completeness - the Gibbs free energy minus the electronic energy
G-E(el)                           ...      0.33180573 Eh    208.21 kcal/mol


Maximum memory used throughout the entire PROP-calculation: 242.6 MB

--------------------------------
SUGGESTED CITATIONS FOR THIS RUN
--------------------------------

Below you find a list of papers that are relevant to this ORCA run
We neither can nor want to force you to cite these papers, but we appreciate if you do
You receive ORCA, which is the product of decades of hard work by many enthusiastic individuals, for free
The only thing we kindly ask in return is that you cite our papers,
We deeply appreciate it, if you show your appreciation for ORCA by not just citing the generic ORCA reference.

Please note that relegating all ORCA citations to the supporting information does *not* help us.
SI sections are not indexed - citations you put there will not count into any citation statistics
But we need these citations in order to attract the funding resources that allow us to do what we are doing

Therefore, if you are a happy ORCA user, please consider citing a few of the papers listed below in the main body of your paper

In addition to the list printed below, the program has created the file ./output/gamma_patchoulene/gamma_patchoulene.bibtex that contains the list in bibtex format
You can import this file easily into all common literature databanks and citation aid programs


List of essential papers. We consider these as the minimum necessary citations

  1. Neese,F.
     Software update: the ORCA program system, version 5.0
     WIRES Comput. Molec. Sci., 2022 12(1)e1606
     doi.org/10.1002/wcms.1606
  2. Mueller,M.; Hansen,A.; Grimme,S.
     wB97X-3c: A composite range-separated hybrid DFT method with a molecule-optimized polarized valence double-zeta basis set
     J. Chem. Phys., 2023 158 014103
     doi.org/10.1063/5.0133026

List of papers to cite with high priority. The work reported in these papers was absolutely
necessary for this run to complete.
Our perspective: the developers of density functionals and basis sets usually get cited in chemistry papers
Good! But without the algorithms to do something with them, the functionals or basis sets would not do anything.
Hence, in our opinion, the algorithm design and method developments papers are equally worthy of getting cited

  1. Neese,F.
     An improvement of the resolution of the identity approximation for the formation of the Coulomb matrix
     J. Comp. Chem., 2003 24(14)1740-1747
     doi.org/10.1002/jcc.10318
  2. Neese,F.; Wennmohs,F.; Hansen,A.; Becker,U.
     Efficient, approximate and parallel Hartree-Fock and hybrid DFT calculations. A 'chain-of-spheres' algorithm for the Hartree-Fock exchange
     Chem. Phys., 2009 356(1-3)98-109
     doi.org/10.1016/j.chemphys.2008.10.036
  3. Bykov,D.; Petrenko,T.; Izsak,R.; Kossmann,S.; Becker,U.; Valeev,E.; Neese,F.
     Efficient implementation of the analytic second derivatives of Hartree-Fock and hybrid DFT energies: a detailed analysis of different approximations
     Molec. Phys., 2015 113 1961-1977
     doi.org/10.1080/00268976.2015.1025114
  4. Helmich-Paris,B.; de Souza,B.; Neese,F.; Izsák,R.
     An improved chain of spheres for exchange algorithm
     J. Chem. Phys., 2021 155 104109
     doi.org/doi: 10.1063/5.0058766.
  5. Neese,F.
     The SHARK Integral Generation and Digestion System
     J. Comp. Chem., 2022  1-16
     doi.org/10.1002/jcc.26942
  6. Caldeweyher,E.; Bannwarth,C.; Grimme,S.
     Extension of the D3 dispersion coefficient model
     J. Chem. Phys., 2017 147 034112
     doi.org/10.1063/1.4993215
  7. Caldeweyher,E.; Ehlert,S.; Hansen,A.; Neugebauer,H.; Spicher,S.; Bannwarth,C.; Grimme,S.
     A generally applicable atomic-charge dependent London dispersion correction
     J. Chem. Phys., 2019 150 154122
     doi.org/10.1063/1.5090222
  8. Caldeweyher,E.; Mewes,J.; Ehlert,S.; Grimme,S.
     Extension and evaluation of the D4 London-dispersion model for periodic systems
     Phys. Chem. Chem. Phys., 2020 22(16)8499-8512
     doi.org/10.1039/D0CP00502A
  9. Wittmann,L.; Gordiy,I.; Friede,M.; Helmich-Paris,B.; Grimme,S.; Hansen,A.; Bursch,M.
     Extension of the D3 and D4 London Dispersion Corrections to the full Actinides Series
     Phys. Chem. Chem. Phys., 2024 26(32)21379-21394
     doi.org/https://doi.org/10.1039/D4CP01514B 

List of suggested additional citations. These are papers that are important in the 'surrounding' of 
of this run, or papers that preceded the highly important papers. If you like your results we are grateful for a citation.

  1. Izsak,R.; Neese,F.
     An overlap fitted chain of spheres exchange method
     J. Chem. Phys., 2011 135 144105
     doi.org/10.1063/1.3646921
  2. Izsak,R.; Hansen,A.; Neese,F.
     The resolution of identity and chain of spheres approximations for the LPNO-CCSD singles Fock term
     Molec. Phys., 2012 110 2413-2417
     doi.org/10.1080/00268976.2012.687466
  3. Neese,F.
     The ORCA program system
     WIRES Comput. Molec. Sci., 2012 2(1)73-78
     doi.org/10.1002/wcms.81
  4. Izsak,R.; Neese,F.; Klopper,W.
     Robust fitting techniques in the chain of spheres approximation to the Fock exchange: The role of the complementary space
     J. Chem. Phys., 2013 139 
     doi.org/10.1063/1.4819264
  5. Neese,F.
     Software update: the ORCA program system, version 4.0
     WIRES Comput. Molec. Sci., 2018 8(1)1-6
     doi.org/10.1002/wcms.1327
  6. Neese,F.; Wennmohs,F.; Becker,U.; Riplinger,C.
     The ORCA quantum chemistry program package
     J. Chem. Phys., 2020 152 Art. No. L224108
     doi.org/10.1063/5.0004608

List of optional additional citations

  1. Neese,F.
     Approximate second-order SCF convergence for spin unrestricted wavefunctions
     Chem. Phys. Lett., 2000 325(1-3)93-98
     doi.org/10.1016/s0009-2614(00)00662-x

Timings for individual modules:

Sum of individual times          ...     1297.450 sec (=  21.624 min)
Startup calculation              ...       43.770 sec (=   0.730 min)   3.4 %
SCF iterations                   ...      618.313 sec (=  10.305 min)  47.7 %
Property integrals               ...      145.654 sec (=   2.428 min)  11.2 %
SCF Response                     ...       94.682 sec (=   1.578 min)   7.3 %
Property calculations            ...      250.485 sec (=   4.175 min)  19.3 %
SCF Gradient evaluation          ...      144.341 sec (=   2.406 min)  11.1 %
Geometry relaxation              ...        0.204 sec (=   0.003 min)   0.0 %
                             ****ORCA TERMINATED NORMALLY****
TOTAL RUN TIME: 0 days 0 hours 21 minutes 43 seconds 103 msec
