
                                 *****************
                                 * O   R   C   A *
                                 *****************

                                            #,                                       
                                            ###                                      
                                            ####                                     
                                            #####                                    
                                            ######                                   
                                           ########,                                 
                                     ,,################,,,,,                         
                               ,,#################################,,                 
                          ,,##########################################,,             
                       ,#########################################, ''#####,          
                    ,#############################################,,   '####,        
                  ,##################################################,,,,####,       
                ,###########''''           ''''###############################       
              ,#####''   ,,,,##########,,,,          '''####'''          '####       
            ,##' ,,,,###########################,,,                        '##       
           ' ,,###''''                  '''############,,,                           
         ,,##''                                '''############,,,,        ,,,,,,###''
      ,#''                                            '''#######################'''  
     '                                                          ''''####''''         
             ,#######,   #######,   ,#######,      ##                                
            ,#'     '#,  ##    ##  ,#'     '#,    #''#        ,####,   ,####,        
            ##       ##  ##   ,#'  ##            #'  '#       #'       #'  '#        
            ##       ##  #######   ##           ,######,      #####,   #    #        
            '#,     ,#'  ##    ##  '#,     ,#' ,#      #,     #,   #   #,  ,#        
             '#######'   ##     ##  '#######'  #'      '#     '####' # '####'        



                #########################################################
                #                        -***-                          #
                #          Department of theory and spectroscopy        #
                #                                                       #
                #                      Frank Neese                      #
                #                                                       #
                #     Directorship, Architecture, Infrastructure        #
                #                    SHARK, DRIVERS                     #
                #        Core code/Algorithms in most modules           #
                #                                                       #
                #        Max Planck Institute fuer Kohlenforschung      #
                #                Kaiser Wilhelm Platz 1                 #
                #                 D-45470 Muelheim/Ruhr                 #
                #                      Germany                          #
                #                                                       #
                #                  All rights reserved                  #
                #                        -***-                          #
                #########################################################


                         Program Version 6.0.1  -  RELEASE   -


 With contributions from (in alphabetic order):
[Max-Planck-Institut fuer Kohlenforschung]                               
  Daniel Aravena         : Magnetic Suceptibility                        
  Michael Atanasov       : Ab Initio Ligand Field Theory (pilot matlab implementation)
  Alexander A. Auer      : GIAO ZORA, VPT2 properties, NMR spectrum      
  Ute Becker             : All parallelization in ORCA, NUMFREQ, NUMCALC 
  Giovanni Bistoni       : ED, misc. LED, open-shell LED, HFLD           
  Martin Brehm           : Molecular dynamics                            
  Dmytro Bykov           : pre 5.0 version of the SCF Hessian            
  Marcos Casanova-Páez   : Triplet and SCS-CIS(D). UHF-(DLPNO)-IP/EA/STEOM-CCSD. UHF-CVS-IP/STEOM-CCSD   
  Vijay G. Chilkuri      : MRCI spin determinant printing, contributions to CSF-ICE 
  Pauline Colinet        : FMM embedding                                 
  Dipayan Datta          : RHF DLPNO-CCSD density                        
  Achintya Kumar Dutta   : EOM-CC, STEOM-CC                              
  Nicolas Foglia         : Exact transition moments, OPA infrastructure, MCD improvements    
  Dmitry Ganyushin       : Spin-Orbit,Spin-Spin,Magnetic field MRCI      
  Miquel Garcia-Rates    : C-PCM and meta-GGA Hessian, CCSD/C-PCM, Gaussian charge scheme 
  Tiago L. C. Gouveia    : GS-ROHF, GS-ROCIS                             
  Yang Guo               : DLPNO-NEVPT2, F12-NEVPT2, CIM, IAO-localization        
  Andreas Hansen         : Spin unrestricted coupled pair/coupled cluster methods 
  Ingolf Harden          : AUTO-CI MPn and infrastructure                
  Benjamin Helmich-Paris : MC-RPA, TRAH-(SCF,CASSCF), AVAS, COSX integrals, SCF dyn. polar. 
  Lee Huntington         : MR-EOM, pCC                                   
  Robert Izsak           : Overlap fitted RIJCOSX, COSX-SCS-MP3, EOM     
  Riya Kayal             : Wick's Theorem for AUTO-CI, AUTO-CI UHF-CCSDT 
  Emily Kempfer          : AUTO-CI, RHF CISDT and CCSDT                  
  Christian Kollmar      : KDIIS, OOCD, Brueckner-CCSD(T), CCSD density, CASPT2, CASPT2-K, improved NEVPT2 
  Axel Koslowski         : Symmetry handling                             
  Simone Kossmann        : meta-GGA functionals, TD-DFT gradient, OOMP2, (MP2 Hessian; deprecated post 5.0) 
  Lucas Lang             : DCDCAS                                        
  Marvin Lechner         : AUTO-CI (C++ implementation), FIC-MRCC        
  Spencer Leger          : CASSCF response                               
  Dagmar Lenk            : GEPOL surface, SMD, ORCA-2-JSON               
  Dimitrios Liakos       : Extrapolation schemes; Compound Job, initial MDCI parallelization 
  Dimitrios Manganas     : Further ROCIS development; embedding schemes. LFT, Crystal Embedding 
  Dimitrios Pantazis     : SARC Basis sets                               
  Anastasios Papadopoulos: AUTO-CI, single reference methods and gradients 
  Taras Petrenko         : pre 6.0 DFT Hessian and TD-DFT gradient, (ASA, deprecated), ECA, 1-Electron XAS/XES, NRVS 
  Peter Pinski           : DLPNO-MP2, DLPNO-MP2 Gradient                 
  Christoph Reimann      : Effective Core Potentials                     
  Marius Retegan         : Local ZFS, SOC                                
  Christoph Riplinger    : Optimizer, TS searches, QM/MM, DLPNO-CCSD(T), (RO)-DLPNO pert. Triples 
  Michael Roemelt        : Original ROCIS implementation                 
  Masaaki Saitow         : Open-shell DLPNO-CCSD energy and density      
  Barbara Sandhoefer     : DKH picture change effects                    
  Kantharuban Sivalingam : CASSCF convergence/infrastructure, NEVPT2 and variants, FIC-MRCI 
  Bernardo de Souza      : ESD, SOC TD-DFT                               
  Georgi L. Stoychev     : AutoAux, RI-MP2 NMR, DLPNO-MP2 response, X2C  
  Van Anh Tran           : RI-MP2 g-tensors                              
  Willem Van den Heuvel  : Paramagnetic NMR                              
  Zikuan Wang            : NOTCH, Electric field optimization            
  Frank Wennmohs         : Technical directorship and infrastructure     
  Hang Xu                : AUTO-CI-Response properties                   
                                                                         
[FACCTs GmbH]                                                            
  Markus Bursch, Miquel Garcia-Rates, Christoph Riplinger, Bernardo de Souza, Georgi L. Stoychev 
                                                                 
  APM, Basis sets (HGBS, AHGBS, def-TZVP (Ac-Lr), def2-XVPD (La-Lu)), CI-OPT, improved COSX, DLPNO-Multilevel,           
  DOCKER, DRACO, updates on ESD, GOAT, IRC, LR-CPCM, MBIS, meta-GGA TD-DFT gradient, ML-optimized integration grids, 
  MM, NACMEs, nearIR, NEB, NEB-TS, NL-DFT gradient (VV10), 2- and 3-layer-ONIOM, interface openCOSMO-RS, QMMM,   
  Crystal-QMMM, SF, symmetry and pop. for TD-DFT, r2SCAN hybrids, SOLVATOR                                   
                                                                         
[Other institutions]                                                     
  V. Asgeirsson          : NEB                                           
  Christoph Bannwarth    : sTDA-DFT, sTD-DFT, PBEh-3c, B97-3c, D3        
  Sebastian Ehlert       : rSCAN, r2SCAN, r2SCAN-3c, D4, dhf basis sets  
  Marvin Friede          : D4 for Fr, Ra, Ac-Lr                          
  Lars Goerigk           : TD-DFT with DH, B97 family of functionals     
  Stefan Grimme          : VdW corrections, initial TS optimization, DFT functionals, gCP, sTDA/sTD-DF 
  Waldemar Hujo          : DFT-NL                                        
  H. Jonsson             : NEB                                           
  Holger Kruse           : gCP                                           
  Marcel Mueller         : wB97X-3c, vDZP basis set                      
  Hagen Neugebauer       : wr2SCAN                                       
  Tobias Risthaus        : range-separated hybrid DFT                    
  Lukas Wittmann         : regularized MP2, r2SCAN double-hybrids, wr2SCAN        
                                                                         
We gratefully acknowledge several colleagues who have allowed us to      
interface, adapt or use parts of their codes:                            
  Ed Valeev, F. Pavosevic, A. Kumar             : LibInt (2-el integral package), F12 methods 
  Garnet Chan, S. Sharma, J. Yang, R. Olivares  : DMRG                   
  Ulf Ekstrom                                   : XCFun DFT Library      
  Mihaly Kallay                                 : mrcc  (arbitrary order and MRCC methods)
  Frank Weinhold                                : gennbo (NPA and NBO analysis)           
  Simon Mueller                                 : openCOSMO-RS                            
  Christopher J. Cramer and Donald G. Truhlar   : smd solvation model                     
  S Lehtola, MJT Oliveira, MAL Marques          : LibXC Library                           
  Liviu Ungur et al                             : ANISO software                          


 Your calculation uses the libint2 library for the computation of 2-el integrals
 For citations please refer to: http://libint.valeyev.net

 Your ORCA version has been built with support for libXC version: 6.2.2
 For citations please refer to: https://libxc.gitlab.io

 This ORCA versions uses:
   CBLAS   interface :  Fast vector & matrix operations
   LAPACKE interface :  Fast linear algebra routines
   SCALAPACK package :  Parallel linear algebra routines
   Shared memory     :  Shared parallel matrices
   BLAS/LAPACK       :  OpenBLAS 0.3.27  USE64BITINT DYNAMIC_ARCH NO_AFFINITY SkylakeX SINGLE_THREADED
        Core in use  :  SkylakeX
   Copyright (c) 2011-2014, The OpenBLAS Project


Your calculation utilizes the atom-pairwise dispersion correction
based on EEQ partial charges (D4)


================================================================================

cite the ECPs for C  [vDZP-ECP], O  [vDZP-ECP] as follows:
   B-Ne (ecp-2-mwb), Al-Ar (ecp-10-mwb), Ga-Kr (ecp-28-mwb), Y-Cd (ecp-28-mwb), In-Xe (ecp-46-mwb):
     A. Bergner, M. Dolg, W. Küchle, H. Stoll, and H. Preuß, Mol. Phys. 80, 1431 (1993)., T. Leininger, A. Berning, A. Nicklass, H. Stoll, H.-J. Werner, and H.-J.Flad, Chem. Phys. 217, 19 (1997).
   Na-Mg, K-Ca, Rb-Sr, Cs-Ba (CRENBL):
     L. Fernandez Pacios and P. A. Christiansen, J. Chem. Phys. 82, 2664 (1985)., M. M. Hurley, L. F. Pacios, P. A. Christiansen, R. B. Ross, and W. C. Ermler, J. Chem. Phys. 84, 6840 (1986)., L. A. LaJohn, P. A. Christiansen, R. B. Ross, T. Atashroo, and W. C. Ermler, J. Chem. Phys. 87, 2812 (1987)., R. B. Ross, J. M. Powers, T. Atashroo, W. C. Ermler, L. A. LaJohn, and P. A. Christiansen, J. Chem. Phys. 93, 6654 (1990). 
   Sc-Zn (ecp-10-mdf):
     M. Dolg, U. Wedig, H. Stoll, and H. Preuss, J. Chem. Phys. 86, 866 (1986). 
   Y-Cd (ecp-28-mwb), Hf-Hg (ecp-60-mwb):
     D. Andrae, U. Häußermann, M. Dolg, H. Stoll, and H. Preuß, Theor. Chim. Acta 77, 123 (1990). 
   La (ecp-46-mwb):
     M. Dolg, H. Stoll, and H. Preuss, J. Chem. Phys. 90, 1730 (1989)., M. Dolg, H. Stoll, and H. Preuss, Theor. Chim. Acta 85, 441 (1993).
   Ce-Lu (SBKJC-ecp):
     T. R. Cundari and W. J. Stevens, J. Chem. Phys. 98, 5555 (1993).
   Tl-Rn (ecp-78-mwb):
     W. Küchle, M. Dolg, H. Stoll, and H. Preuss, Mol. Phys. 74, 1245 (1991).

ECP parameters for C  [vDZP-ECP], O  [vDZP-ECP] have been obtained from:
MM, AH, SG, J. Chem. Phys. 158, 014103 (2023), 10.1063/5.0133026

----- Orbital basis set information -----
Your calculation utilizes the basis: vDZP
   Marcel Mueller, Andreas Hansen, Stefan Grimme 
   J. Chem. Phys. 158, 014103 (2023). DOI: 10.1063/5.0133026

----- AuxJ basis set information -----
Your calculation utilizes the auxiliary basis: def2/J
   F. Weigend, Phys. Chem. Chem. Phys. 8, 1057 (2006).

================================================================================
                                        WARNINGS
                       Please study these warnings very carefully!
================================================================================

WARNING: Frozen-Core approximation turned on, but there are no core electrons.
  ===> : Turning off frozen-core approximation


WARNING: Geometry Optimization
  ===> : Switching off AutoStart
         For restart on a previous wavefunction, please use MOREAD

================================================================================
                                       INPUT FILE
================================================================================
NAME = ./output/isobutyl_isobutyrate/isobutyl_isobutyrate.inp
|  1> ! wB97X-3c OPT FREQ TightSCF
|  2> %pal
|  3>   nprocs 40
|  4> end
|  5> * xyz 0 1
|  6> C     -2.204014     1.356662     0.645655
|  7> C     -2.104920    -0.071730     0.094575
|  8> C     -3.502776    -0.681882    -0.057737
|  9> C     -1.231068    -0.956809     1.003296
| 10> O      0.092018    -0.433492     1.113737
| 11> C      1.042749    -0.518871     0.090556
| 12> O      0.787342    -1.147620    -0.973893
| 13> C      2.370522     0.162693     0.263662
| 14> C      2.506065     1.322895    -0.726347
| 15> C      3.520060    -0.836757     0.101075
| 16> H     -2.650674     1.354790     1.663222
| 17> H     -2.835129     1.981659    -0.021624
| 18> H     -1.196644     1.821934     0.695783
| 19> H     -1.642686    -0.023653    -0.915375
| 20> H     -3.429967    -1.701885    -0.491940
| 21> H     -4.012572    -0.746705     0.927708
| 22> H     -4.120221    -0.060362    -0.740952
| 23> H     -1.190035    -1.996807     0.610671
| 24> H     -1.677233    -1.000144     2.020190
| 25> H      2.422211     0.580558     1.293290
| 26> H      3.465197     1.857732    -0.558491
| 27> H      1.675071     2.046469    -0.581458
| 28> H      2.481301     0.952751    -1.774098
| 29> H      3.532843    -1.261930    -0.925760
| 30> H      4.492116    -0.333397     0.290618
| 31> H      3.410444    -1.666100     0.832420
| 32> *
| 33> 
| 34>                          ****END OF INPUT****
================================================================================

                       *****************************
                       * Geometry Optimization Run *
                       *****************************

Geometry optimization settings:
Update method            Update   .... BFGS
Choice of coordinates    CoordSys .... (2022) Redundant Internals
Initial Hessian          InHess   .... Almloef's Model
Max. no of cycles        MaxIter  .... 78

Convergence Tolerances:
Energy Change            TolE     ....  5.0000e-06 Eh
Max. Gradient            TolMAXG  ....  3.0000e-04 Eh/bohr
RMS Gradient             TolRMSG  ....  1.0000e-04 Eh/bohr
Max. Displacement        TolMAXD  ....  4.0000e-03 bohr
RMS Displacement         TolRMSD  ....  2.0000e-03 bohr
Strict Convergence                .... False

------------------------------------------------------------------------------
                        ORCA OPTIMIZATION COORDINATE SETUP
------------------------------------------------------------------------------

The optimization will be done in redundant internal coordinates (2022)
Making redundant internal coordinates   ...  (2022 redundants) done
Evaluating the initial hessian          ...  (Almloef) done
Evaluating the coordinates              ...  done
Calculating the B-matrix                .... done
Calculating the G-matrix                .... done
Diagonalizing the G-matrix              .... done
Small eigenvalue found = 7.380e-03
Small eigenvalue found = 1.117e-02
Small eigenvalue found = 1.856e-02
The first mode is                       ....   39
The number of degrees of freedom        ....   72

    -----------------------------------------------------------------
                    Redundant Internal Coordinates


    -----------------------------------------------------------------
         Definition                    Initial Value    Approx d2E/dq
    -----------------------------------------------------------------
      1. B(C   1,C   0)                  1.5342         0.367836   
      2. B(C   2,C   1)                  1.5328         0.369747   
      3. B(C   3,C   1)                  1.5404         0.359604   
      4. B(O   4,C   3)                  1.4271         0.488298   
      5. B(C   5,O   4)                  1.3993         0.540775   
      6. B(O   6,C   5)                  1.2624         0.894295   
      7. B(C   7,C   5)                  1.5025         0.413302   
      8. B(C   8,C   7)                  1.5312         0.371938   
      9. B(C   9,C   7)                  1.5319         0.370952   
     10. B(H  10,C   0)                  1.1113         0.333017   
     11. B(H  11,C   0)                  1.1109         0.333437   
     12. B(H  12,C   0)                  1.1108         0.333660   
     13. B(H  13,C   1)                  1.1117         0.332457   
     14. B(H  14,C   2)                  1.1110         0.333409   
     15. B(H  15,C   2)                  1.1114         0.332882   
     16. B(H  16,C   2)                  1.1110         0.333371   
     17. B(H  17,C   3)                  1.1124         0.331654   
     18. B(H  18,C   3)                  1.1113         0.332982   
     19. B(H  19,C   7)                  1.1124         0.331663   
     20. B(H  20,C   8)                  1.1109         0.333453   
     21. B(H  21,C   8)                  1.1114         0.332933   
     22. B(H  22,C   8)                  1.1115         0.332769   
     23. B(H  23,C   9)                  1.1115         0.332811   
     24. B(H  24,C   9)                  1.1109         0.333436   
     25. B(H  25,C   9)                  1.1112         0.333160   
     26. A(C   1,C   0,H  12)          110.3417         0.319483   
     27. A(C   1,C   0,H  10)          110.6889         0.319382   
     28. A(C   1,C   0,H  11)          110.1650         0.319448   
     29. A(H  11,C   0,H  12)          107.8584         0.283961   
     30. A(H  10,C   0,H  12)          108.8991         0.283906   
     31. A(H  10,C   0,H  11)          108.8205         0.283876   
     32. A(C   3,C   1,H  13)          108.9595         0.318118   
     33. A(C   0,C   1,C   3)          111.0815         0.360044   
     34. A(C   2,C   1,C   3)          110.3194         0.360362   
     35. A(C   0,C   1,C   2)          110.3281         0.361755   
     36. A(C   0,C   1,H  13)          108.2340         0.319295   
     37. A(C   2,C   1,H  13)          107.8252         0.319565   
     38. A(H  15,C   2,H  16)          108.8427         0.283850   
     39. A(H  14,C   2,H  16)          108.0411         0.283919   
     40. A(C   1,C   2,H  16)          110.1971         0.319708   
     41. A(H  14,C   2,H  15)          108.8478         0.283855   
     42. A(C   1,C   2,H  15)          110.6970         0.319632   
     43. A(C   1,C   2,H  14)          110.1538         0.319714   
     44. A(O   4,C   3,H  18)          108.4031         0.332611   
     45. A(O   4,C   3,H  17)          109.6302         0.332391   
     46. A(C   1,C   3,H  17)          110.4809         0.317992   
     47. A(H  17,C   3,H  18)          107.5368         0.283635   
     48. A(C   1,C   3,H  18)          109.5399         0.318200   
     49. A(C   1,C   3,O   4)          111.1557         0.375614   
     50. A(C   3,O   4,C   5)          123.4319         0.400755   
     51. A(O   4,C   5,C   7)          119.2419         0.391699   
     52. A(O   4,C   5,O   6)          120.6293         0.446515   
     53. A(O   6,C   5,C   7)          120.1242         0.428202   
     54. A(C   8,C   7,C   9)          111.0570         0.362642   
     55. A(C   5,C   7,C   9)          110.7905         0.369252   
     56. A(C   5,C   7,C   8)          110.3314         0.369421   
     57. A(C   9,C   7,H  19)          107.9656         0.319610   
     58. A(C   8,C   7,H  19)          108.0418         0.319749   
     59. A(C   5,C   7,H  19)          108.5484         0.325322   
     60. A(H  21,C   8,H  22)          108.8478         0.283777   
     61. A(H  20,C   8,H  22)          108.7835         0.283845   
     62. A(C   7,C   8,H  22)          110.8046         0.319922   
     63. A(H  20,C   8,H  21)          108.2049         0.283867   
     64. A(C   7,C   8,H  21)          110.0502         0.319948   
     65. A(C   7,C   8,H  20)          110.0915         0.320030   
     66. A(H  24,C   9,H  25)          108.1917         0.283895   
     67. A(H  23,C   9,H  25)          108.8861         0.283812   
     68. A(C   7,C   9,H  25)          110.0638         0.319845   
     69. A(H  23,C   9,H  24)          108.7166         0.283849   
     70. A(C   7,C   9,H  24)          110.0516         0.319888   
     71. A(C   7,C   9,H  23)          110.8706         0.319790   
     72. D(C   3,C   1,C   0,H  11)    179.8851         0.010824   
     73. D(C   2,C   1,C   0,H  10)     62.9487         0.010824   
     74. D(C   2,C   1,C   0,H  12)   -176.4363         0.010824   
     75. D(C   3,C   1,C   0,H  12)     60.9009         0.010824   
     76. D(C   3,C   1,C   0,H  10)    -59.7141         0.010824   
     77. D(C   2,C   1,C   0,H  11)    -57.4521         0.010824   
     78. D(H  14,C   2,C   1,C   0)    177.9207         0.010930   
     79. D(H  15,C   2,C   1,H  13)   -179.6569         0.010930   
     80. D(H  15,C   2,C   1,C   3)     61.4617         0.010930   
     81. D(H  15,C   2,C   1,C   0)    -61.6465         0.010930   
     82. D(H  14,C   2,C   1,C   3)    -58.9710         0.010930   
     83. D(H  14,C   2,C   1,H  13)     59.9104         0.010930   
     84. D(O   4,C   3,C   1,H  13)     59.4524         0.010376   
     85. D(O   4,C   3,C   1,C   2)    177.6402         0.010376   
     86. D(O   4,C   3,C   1,C   0)    -59.6919         0.010376   
     87. D(H  17,C   3,C   1,H  13)    -62.4905         0.010376   
     88. D(H  17,C   3,C   1,C   2)     55.6972         0.010376   
     89. D(H  17,C   3,C   1,C   0)    178.3651         0.010376   
     90. D(C   5,O   4,C   3,H  18)    165.1855         0.018824   
     91. D(C   5,O   4,C   3,H  17)     48.0673         0.018824   
     92. D(C   5,O   4,C   3,C   1)    -74.3690         0.018824   
     93. D(C   7,C   5,O   4,C   3)    175.0080         0.021119   
     94. D(O   6,C   5,O   4,C   3)     -4.2132         0.021119   
     95. D(H  19,C   7,C   5,O   4)      5.4194         0.012644   
     96. D(C   9,C   7,C   5,O   6)    -56.9699         0.012644   
     97. D(C   9,C   7,C   5,O   4)    123.8049         0.012644   
     98. D(C   8,C   7,C   5,O   6)     66.4341         0.012644   
     99. D(C   8,C   7,C   5,O   4)   -112.7911         0.012644   
    100. D(H  20,C   8,C   7,H  19)     58.4521         0.011052   
    101. D(H  20,C   8,C   7,C   9)    -59.7781         0.011052   
    102. D(H  20,C   8,C   7,C   5)    176.9728         0.011052   
    103. D(H  21,C   8,C   7,H  19)    -60.7320         0.011052   
    104. D(H  21,C   8,C   7,C   9)   -178.9622         0.011052   
    105. D(H  21,C   8,C   7,C   5)     57.7887         0.011052   
    106. D(H  24,C   9,C   7,H  19)    -57.9236         0.010997   
    107. D(H  24,C   9,C   7,C   8)     60.3527         0.010997   
    108. D(H  24,C   9,C   7,C   5)   -176.6622         0.010997   
    109. D(H  23,C   9,C   7,H  19)   -178.2378         0.010997   
    110. D(H  23,C   9,C   7,C   8)    -59.9615         0.010997   
    111. D(H  23,C   9,C   7,C   5)     63.0236         0.010997   
    -----------------------------------------------------------------

Number of atoms                         .... 26
Number of degrees of freedom            .... 111


         *************************************************************
         *                GEOMETRY OPTIMIZATION CYCLE   1            *
         *************************************************************
---------------------------------
CARTESIAN COORDINATES (ANGSTROEM)
---------------------------------
  C     -2.204014    1.356662    0.645655
  C     -2.104920   -0.071730    0.094575
  C     -3.502776   -0.681882   -0.057737
  C     -1.231068   -0.956809    1.003296
  O      0.092018   -0.433492    1.113737
  C      1.042749   -0.518871    0.090556
  O      0.787342   -1.147620   -0.973893
  C      2.370522    0.162693    0.263662
  C      2.506065    1.322895   -0.726347
  C      3.520060   -0.836757    0.101075
  H     -2.650674    1.354790    1.663222
  H     -2.835129    1.981659   -0.021624
  H     -1.196644    1.821934    0.695783
  H     -1.642686   -0.023653   -0.915375
  H     -3.429967   -1.701885   -0.491940
  H     -4.012572   -0.746705    0.927708
  H     -4.120221   -0.060362   -0.740952
  H     -1.190035   -1.996807    0.610671
  H     -1.677233   -1.000144    2.020190
  H      2.422211    0.580558    1.293290
  H      3.465197    1.857732   -0.558491
  H      1.675071    2.046469   -0.581458
  H      2.481301    0.952751   -1.774098
  H      3.532843   -1.261930   -0.925760
  H      4.492116   -0.333397    0.290618
  H      3.410444   -1.666100    0.832420

----------------------------
CARTESIAN COORDINATES (A.U.)
----------------------------
  NO LB      ZA    FRAG     MASS         X           Y           Z
   0 C     4.0000*   0    12.011   -4.164983    2.563720    1.220111
   1 C     4.0000*   0    12.011   -3.977722   -0.135550    0.178721
   2 C     4.0000*   0    12.011   -6.619287   -1.288570   -0.109107
   3 C     4.0000*   0    12.011   -2.326381   -1.808107    1.895955
   4 O     6.0000*   0    15.999    0.173889   -0.819181    2.104658
   5 C     4.0000*   0    12.011    1.970510   -0.980524    0.171126
   6 O     6.0000*   0    15.999    1.487861   -2.168688   -1.840391
   7 C     4.0000*   0    12.011    4.479637    0.307445    0.498249
   8 C     4.0000*   0    12.011    4.735777    2.499909   -1.372597
   9 C     4.0000*   0    12.011    6.651949   -1.581242    0.191004
  10 H     1.0000    0     1.008   -5.009048    2.560182    3.143034
  11 H     1.0000    0     1.008   -5.357617    3.744793   -0.040863
  12 H     1.0000    0     1.008   -2.261329    3.442956    1.314839
  13 H     1.0000    0     1.008   -3.104227   -0.044698   -1.729808
  14 H     1.0000    0     1.008   -6.481698   -3.216097   -0.929632
  15 H     1.0000    0     1.008   -7.582662   -1.411068    1.753114
  16 H     1.0000    0     1.008   -7.786089   -0.114068   -1.400196
  17 H     1.0000    0     1.008   -2.248840   -3.773418    1.154001
  18 H     1.0000    0     1.008   -3.169511   -1.889998    3.817606
  19 H     1.0000    0     1.008    4.577315    1.097096    2.443964
  20 H     1.0000    0     1.008    6.548273    3.510605   -1.055395
  21 H     1.0000    0     1.008    3.165425    3.867266   -1.098796
  22 H     1.0000    0     1.008    4.688979    1.800438   -3.352559
  23 H     1.0000    0     1.008    6.676106   -2.384702   -1.749433
  24 H     1.0000    0     1.008    8.488869   -0.630029    0.549188
  25 H     1.0000    0     1.008    6.444805   -3.148473    1.573046
* core charge reduced due to ECP

--------------------------------
INTERNAL COORDINATES (ANGSTROEM)
--------------------------------
 C      0   0   0     0.000000000000     0.00000000     0.00000000
 C      1   0   0     1.534213965814     0.00000000     0.00000000
 C      2   1   0     1.532803250644   110.32812604     0.00000000
 C      2   1   3     1.540375282191   111.08148126   237.33715660
 O      4   2   1     1.427100017646   111.15573049   300.30808279
 C      5   4   2     1.399313534117   123.43194134   285.63098818
 O      6   5   4     1.262382554637   120.62927355   355.78678699
 C      6   5   4     1.502490037525   119.24190845   175.00797150
 C      8   6   5     1.531195090684   110.33143592   247.20891299
 C      8   6   5     1.531917898751   110.79054613   123.80485807
 H      1   2   3     1.111283608928   110.68894934    62.94873809
 H      1   2   3     1.110940438131   110.16501013   302.54794906
 H      1   2   3     1.110758824979   110.34171505   183.56374773
 H      2   1   3     1.111742178378   108.23398108   117.75888089
 H      3   2   1     1.110963327792   110.15377553   177.92072639
 H      3   2   1     1.111393643571   110.69701197   298.35348405
 H      3   2   1     1.110994228000   110.19708850    58.80821683
 H      4   2   1     1.112400079880   110.48091939   178.36511994
 H      4   2   1     1.111312078890   109.53986153    60.07968695
 H      8   6   5     1.112392345052   108.54837335     5.41940671
 H      9   8   6     1.110927741453   110.09147485   176.97282423
 H      9   8   6     1.111351962176   110.05019348    57.78870229
 H      9   8   6     1.111486389675   110.80457714   297.35404952
 H     10   8   6     1.111452024265   110.87055968    63.02357666
 H     10   8   6     1.110941360102   110.05162737   183.33780281
 H     10   8   6     1.111166498834   110.06376508   302.48937583

---------------------------
INTERNAL COORDINATES (A.U.)
---------------------------
 C      0   0   0     0.000000000000     0.00000000     0.00000000
 C      1   0   0     2.899244226226     0.00000000     0.00000000
 C      2   1   0     2.896578360901   110.32812604     0.00000000
 C      2   1   3     2.910887426803   111.08148126   237.33715660
 O      4   2   1     2.696828199066   111.15573049   300.30808279
 C      5   4   2     2.644319354971   123.43194134   285.63098818
 O      6   5   4     2.385557304503   120.62927355   355.78678699
 C      6   5   4     2.839294689867   119.24190845   175.00797150
 C      8   6   5     2.893539378997   110.33143592   247.20891299
 C      8   6   5     2.894905288291   110.79054613   123.80485807
 H      1   2   3     2.100021677990   110.68894934    62.94873809
 H      1   2   3     2.099373179166   110.16501013   302.54794906
 H      1   2   3     2.099029980046   110.34171505   183.56374773
 H      2   1   3     2.100888248664   108.23398108   117.75888089
 H      3   2   1     2.099416434357   110.15377553   177.92072639
 H      3   2   1     2.100229613330   110.69701197   298.35348405
 H      3   2   1     2.099474827288   110.19708850    58.80821683
 H      4   2   1     2.102131502326   110.48091939   178.36511994
 H      4   2   1     2.100075478420   109.53986153    60.07968695
 H      8   6   5     2.102116885618   108.54837335     5.41940671
 H      9   8   6     2.099349185921   110.09147485   176.97282423
 H      9   8   6     2.100150846909   110.05019348    57.78870229
 H      9   8   6     2.100404878067   110.80457714   297.35404952
 H     10   8   6     2.100339936853   110.87055968    63.02357666
 H     10   8   6     2.099374921439   110.05162737   183.33780281
 H     10   8   6     2.099800371984   110.06376508   302.48937583

---------------------
BASIS SET INFORMATION
---------------------
There are 3 groups of distinct atoms

 Group   1 Type C   : 6s6p2d contracted to 2s2p1d pattern {42/42/2}
 Group   2 Type O   : 6s6p2d contracted to 2s2p1d pattern {42/42/2}
 Group   3 Type H   : 8s2p contracted to 2s1p pattern {53/2}

Atom   0C    basis set group =>   1
Atom   1C    basis set group =>   1
Atom   2C    basis set group =>   1
Atom   3C    basis set group =>   1
Atom   4O    basis set group =>   2
Atom   5C    basis set group =>   1
Atom   6O    basis set group =>   2
Atom   7C    basis set group =>   1
Atom   8C    basis set group =>   1
Atom   9C    basis set group =>   1
Atom  10H    basis set group =>   3
Atom  11H    basis set group =>   3
Atom  12H    basis set group =>   3
Atom  13H    basis set group =>   3
Atom  14H    basis set group =>   3
Atom  15H    basis set group =>   3
Atom  16H    basis set group =>   3
Atom  17H    basis set group =>   3
Atom  18H    basis set group =>   3
Atom  19H    basis set group =>   3
Atom  20H    basis set group =>   3
Atom  21H    basis set group =>   3
Atom  22H    basis set group =>   3
Atom  23H    basis set group =>   3
Atom  24H    basis set group =>   3
Atom  25H    basis set group =>   3
---------------------------------
AUXILIARY/J BASIS SET INFORMATION
---------------------------------
There are 3 groups of distinct atoms

 Group   1 Type C   : 12s5p4d2f1g contracted to 6s4p3d1f1g pattern {711111/2111/211/2/1}
 Group   2 Type O   : 12s5p4d2f1g contracted to 6s4p3d1f1g pattern {711111/2111/211/2/1}
 Group   3 Type H   : 5s2p1d contracted to 3s1p1d pattern {311/2/1}

Atom   0C    basis set group =>   1
Atom   1C    basis set group =>   1
Atom   2C    basis set group =>   1
Atom   3C    basis set group =>   1
Atom   4O    basis set group =>   2
Atom   5C    basis set group =>   1
Atom   6O    basis set group =>   2
Atom   7C    basis set group =>   1
Atom   8C    basis set group =>   1
Atom   9C    basis set group =>   1
Atom  10H    basis set group =>   3
Atom  11H    basis set group =>   3
Atom  12H    basis set group =>   3
Atom  13H    basis set group =>   3
Atom  14H    basis set group =>   3
Atom  15H    basis set group =>   3
Atom  16H    basis set group =>   3
Atom  17H    basis set group =>   3
Atom  18H    basis set group =>   3
Atom  19H    basis set group =>   3
Atom  20H    basis set group =>   3
Atom  21H    basis set group =>   3
Atom  22H    basis set group =>   3
Atom  23H    basis set group =>   3
Atom  24H    basis set group =>   3
Atom  25H    basis set group =>   3
-------------------------
ECP PARAMETER INFORMATION
-------------------------

 Group 1, Type C  ECP vDZP-ECP (replacing 2 core electrons, lmax=3)
 Group 2, Type O  ECP vDZP-ECP (replacing 2 core electrons, lmax=3)

Atom   0C    ECP group =>   1
Atom   1C    ECP group =>   1
Atom   2C    ECP group =>   1
Atom   3C    ECP group =>   1
Atom   4O    ECP group =>   2
Atom   5C    ECP group =>   1
Atom   6O    ECP group =>   2
Atom   7C    ECP group =>   1
Atom   8C    ECP group =>   1
Atom   9C    ECP group =>   1



           ************************************************************
           *        Program running with 40 parallel MPI-processes    *
           *              working on a common directory               *
           ************************************************************
------------------------------------------------------------------------------
                             ORCA STARTUP CALCULATIONS
                           -- RI-GTO INTEGRALS CHOSEN --
------------------------------------------------------------------------------
------------------------------------------------------------------------------
                   ___                                                        
                  /   \      - P O W E R E D   B Y -                         
                 /     \                                                     
                 |  |  |   _    _      __       _____    __    __             
                 |  |  |  | |  | |    /  \     |  _  \  |  |  /  |          
                  \  \/   | |  | |   /    \    | | | |  |  | /  /          
                 / \  \   | |__| |  /  /\  \   | |_| |  |  |/  /          
                |  |  |   |  __  | /  /__\  \  |    /   |      \           
                |  |  |   | |  | | |   __   |  |    \   |  |\   \          
                \     /   | |  | | |  |  |  |  | |\  \  |  | \   \       
                 \___/    |_|  |_| |__|  |__|  |_| \__\ |__|  \__/        
                                                                              
                      - O R C A' S   B I G   F R I E N D -                    
                                      &                                       
                       - I N T E G R A L  F E E D E R -                       
                                                                              
 v1 FN, 2020, v2 2021, v3 2022-2024                                           
------------------------------------------------------------------------------


----------------------
SHARK INTEGRAL PACKAGE
----------------------

Number of atoms                             ...     26
Number of basis functions                   ...    210
Number of shells                            ...     98
Maximum angular momentum                    ...      2
Integral batch strategy                     ... SHARK/LIBINT Hybrid
RI-J (if used) integral strategy            ... SPLIT-RIJ (Revised 2003 algorithm where possible)
Printlevel                                  ...      1
Contraction scheme used                     ... SEGMENTED contraction
Prescreening option                         ... SCHWARTZ
   Thresh                                   ... 2.500e-11
   Tcut                                     ... 2.500e-12
   Tpresel                                  ... 2.500e-12 
Coulomb Range Separation                    ... NOT USED
Exchange Range Separation                   ... Long Range
   Mu parameter                             ... 3.000e-01
   Scaling (regular/separated)              ... 1.670e-01 8.330e-01
Multipole approximations                    ... NOT USED
Finite Nucleus Model                        ... NOT USED
CABS basis                                  ... NOT available
Auxiliary Coulomb fitting basis             ... AVAILABLE
   # of basis functions in Aux-J            ...    666
   # of shells in Aux-J                     ...    230
   Maximum angular momentum in Aux-J        ...      4
Auxiliary J/K fitting basis                 ... NOT available
Auxiliary Correlation fitting basis         ... NOT available
Auxiliary 'external' fitting basis          ... NOT available

Checking pre-screening integrals            ... done (  0.0 sec) Dimension = 98
Check shell pair data                       ... done (  0.0 sec)
Shell pair information
Shell pair cut-off parameter TPreSel        ...   2.5e-12
Total number of shell pairs                 ...      4851
Shell pairs after pre-screening             ...      4817
Total number of primitive shell pairs       ...     45524
Primitive shell pairs kept                  ...     35319
          la=0 lb=0:   1374 shell pairs
          la=1 lb=0:   1857 shell pairs
          la=1 lb=1:    651 shell pairs
          la=2 lb=0:    520 shell pairs
          la=2 lb=1:    360 shell pairs
          la=2 lb=2:     55 shell pairs

Calculating one electron integrals          ... done (  0.0 sec)
Calculating ECP integrals                   ... done (  0.1 sec)
Calculating RI/J V-Matrix + Cholesky decomp.... done (  0.0 sec)
Calculating Nuclear repulsion               ... done (  0.0 sec) ENN=    315.189138427101 Eh

Diagonalization of the overlap matrix:
Smallest eigenvalue                        ... 1.762e-03
Time for diagonalization                   ...    0.006 sec
Threshold for overlap eigenvalues          ... 1.000e-07
Number of eigenvalues below threshold      ... 0
Time for construction of square roots      ...    0.004 sec
Total time needed                          ...    0.014 sec

-------------------
DFT GRID GENERATION
-------------------

General Integration Accuracy     IntAcc      ... 4.388
Radial Grid Type                 RadialGrid  ... OptM3 with GC (2021)
Angular Grid (max. ang.)         AngularGrid ... 4 (Lebedev-302)
Angular grid pruning method      GridPruning ... 4 (adaptive)
Weight generation scheme         WeightScheme... mBecke (2022)
Basis function cutoff            BFCut       ... 1.0000e-11
Integration weight cutoff        WCut        ... 1.0000e-14
Partially contracted basis set               ... off
Rotationally invariant grid construction     ... off
Angular grids for H and He will be reduced by one unit

Total number of grid points                  ...   111338
Total number of batches                      ...     1750
Average number of points per batch           ...       63
Average number of grid points per atom       ...     4282

--------------------
COSX GRID GENERATION
--------------------

GRIDX 1
-------
General Integration Accuracy     IntAcc      ... 3.816
Radial Grid Type                 RadialGrid  ... OptM3 with GC (2021)
Angular Grid (max. ang.)         AngularGrid ... 1 (Lebedev-50)
Angular grid pruning method      GridPruning ... 4 (adaptive)
Weight generation scheme         WeightScheme... mBecke (2022)
Basis function cutoff            BFCut       ... 1.0000e-11
Integration weight cutoff        WCut        ... 1.0000e-14
Partially contracted basis set               ... on
Rotationally invariant grid construction     ... off
Angular grids for H and He will be reduced by one unit

Total number of grid points                  ...    14256
Total number of batches                      ...      129
Average number of points per batch           ...      110
Average number of grid points per atom       ...      548
UseSFitting                                  ... on

GRIDX 2
-------
General Integration Accuracy     IntAcc      ... 4.020
Radial Grid Type                 RadialGrid  ... OptM3 with GC (2021)
Angular Grid (max. ang.)         AngularGrid ... 2 (Lebedev-110)
Angular grid pruning method      GridPruning ... 4 (adaptive)
Weight generation scheme         WeightScheme... mBecke (2022)
Basis function cutoff            BFCut       ... 1.0000e-11
Integration weight cutoff        WCut        ... 1.0000e-14
Partially contracted basis set               ... on
Rotationally invariant grid construction     ... off
Angular grids for H and He will be reduced by one unit

Total number of grid points                  ...    29838
Total number of batches                      ...      247
Average number of points per batch           ...      120
Average number of grid points per atom       ...     1148
UseSFitting                                  ... on

GRIDX 3
-------
General Integration Accuracy     IntAcc      ... 4.338
Radial Grid Type                 RadialGrid  ... OptM3 with GC (2021)
Angular Grid (max. ang.)         AngularGrid ... 3 (Lebedev-194)
Angular grid pruning method      GridPruning ... 4 (adaptive)
Weight generation scheme         WeightScheme... mBecke (2022)
Basis function cutoff            BFCut       ... 1.0000e-11
Integration weight cutoff        WCut        ... 1.0000e-14
Partially contracted basis set               ... on
Rotationally invariant grid construction     ... off
Angular grids for H and He will be reduced by one unit

Total number of grid points                  ...    64993
Total number of batches                      ...      522
Average number of points per batch           ...      124
Average number of grid points per atom       ...     2500
UseSFitting                                  ... on
Initializing property integral containers    ... done (  0.0 sec)

SHARK setup successfully completed in   3.2 seconds

Maximum memory used throughout the entire STARTUP-calculation: 33.1 MB


           ************************************************************
           *        Program running with 40 parallel MPI-processes    *
           *              working on a common directory               *
           ************************************************************
-------------------------------------------------------------------------------
                                 ORCA GUESS
                   Start orbitals & Density for SCF / CASSCF
-------------------------------------------------------------------------------

------------
SCF SETTINGS
------------
Hamiltonian:
 Density Functional     Method          .... DFT(GTOs)
 Exchange Functional    Exchange        .... WB97X-V
 Correlation Functional Correlation     .... WB97X-V
 Gradients option       PostSCFGGA      .... off
 Hybrid DFT is turned on
   Fraction HF Exchange ScalHFX         ....  0.167000
   Scaling of DF-GGA-X  ScalDFX         ....  0.000000
   Scaling of DF-GGA-C  ScalDFC         ....  1.000000
   Scaling of DF-LDA-C  ScalLDAC        ....  1.000000
   Perturbative correction              ....  0.000000
 Long-range corrected/Screened/Range-Separated Hybrid DFT is turned on
   Amount of maximum screened exact exchange              ....  0.833000
   Range separation parameter mu (erf(mu*r12)/r12)        ....  0.300000
   NL short-range parameter             ....  6.000000
   NL long-range parameter              ....  0.010000
 RI-approximation to the Coulomb term is turned on
   Number of AuxJ basis functions       .... 666
   RIJ-COSX (HFX calculated with COS-X)).... on


General Settings:
 Integral files         IntName         .... ./output/isobutyl_isobutyrate/isobutyl_isobutyrate
 Hartree-Fock type      HFTyp           .... RHF
 Total Charge           Charge          ....    0
 Multiplicity           Mult            ....    1
 Number of Electrons    NEL             ....   60
 Basis Dimension        Dim             ....  210
 Nuclear Repulsion      ENuc            ....    315.1891384271 Eh

Convergence Acceleration:
 AO-DIIS                CNVDIIS         .... on
   Start iteration      DIISMaxIt       ....    12
   Startup error        DIISStart       ....  0.200000
   # of expansion vecs  DIISMaxEq       ....     5
   Bias factor          DIISBfac        ....   1.050
   Max. coefficient     DIISMaxC        ....  10.000
 MO-DIIS                CNVKDIIS        .... off
 Trust-Rad. Augm. Hess. CNVTRAH         .... auto
   Auto Start mean grad. ratio tolernc. ....  1.125000
   Auto Start start iteration           ....    50
   Auto Start num. interpolation iter.  ....    10
   Max. Number of Micro iterations      ....    24
   Max. Number of Macro iterations      .... Maxiter - #DIIS iter
   Number of Davidson start vectors     ....     2
   Converg. threshold    (grad. norm)   ....   1.000e-05
   Grad. Scal. Fac. for Micro threshold ....   0.100
   Minimum threshold for Micro iter.    ....   1.000e-02
   NR start threshold (gradient norm)   ....   1.000e-04
   Initial trust radius                 ....   0.400
   Minimum AH scaling param. (alpha)    ....   1.000
   Maximum AH scaling param. (alpha)    .... 1000.000
   Quad. conv. algorithm                .... NR
   White noise on init. David. guess    .... on
   Maximum white noise                  ....   0.010
   Pseudo random numbers                .... off
   Inactive MOs                         .... canonical
   Orbital update algorithm             .... Taylor
   Preconditioner                       .... Diag
   Full preconditioner red. dimension   ....   250
 SOSCF                  CNVSOSCF        .... on
   Start iteration      SOSCFMaxIt      ....   150
   Startup grad/error   SOSCFStart      ....  0.003300
   Hessian update       SOSCFHessUp     .... L-BFGS
 Level Shifting         CNVShift        .... on
   Level shift para.    LevelShift      ....    0.2500
   Turn off err/grad.   ShiftErr        ....    0.0010
 Zerner damping         CNVZerner       .... off
 Static damping         CNVDamp         .... on
   Fraction old density DampFac         ....    0.7000
   Max. Damping (<1)    DampMax         ....    0.9800
   Min. Damping (>=0)   DampMin         ....    0.0000
   Turn off err/grad.   DampErr         ....    0.1000

SCF Procedure:
 Maximum # iterations   MaxIter         ....   125
 SCF integral mode      SCFMode         .... Direct
   Integral package                     .... SHARK and LIBINT hybrid scheme
 Reset frequency        DirectResetFreq ....    20
 Integral Threshold     Thresh          ....  2.500e-11 Eh
 Primitive CutOff       TCut            ....  2.500e-12 Eh

Convergence Tolerance:
 Convergence Check Mode ConvCheckMode   .... Total+1el-Energy
 Convergence forced     ConvForced      .... 0
 Energy Change          TolE            ....  1.000e-08 Eh
 1-El. energy change                    ....  1.000e-05 Eh
 Orbital Gradient       TolG            ....  1.000e-05
 Orbital Rotation angle TolX            ....  1.000e-05
 DIIS Error             TolErr          ....  5.000e-07

------------------------------
INITIAL GUESS: MODEL POTENTIAL
------------------------------
Loading Hartree-Fock densities                     ... done
Atomic calculation to generate a density for atom 0 (C  with ECP)
  Multiplicity assumed   :    1
  Atomic configuration   : 1s2 2s2 2p2 
  Number of open shells  : 1
  Command: /home/aspe232/Project/Software/ORCA/6_0_1/build/orca ./output/isobutyl_isobutyrate/isobutyl_isobutyrate_atom6.inp "" > ./output/isobutyl_isobutyrate/isobutyl_isobutyrate_atom6.out
Returned from the atomic calculation with res=0
Atomic calculation to generate a density for atom 4 (O  with ECP)
  Multiplicity assumed   :    3
  Atomic configuration   : 1s2 2s2 2p4 
  Number of open shells  : 1
  Command: /home/aspe232/Project/Software/ORCA/6_0_1/build/orca ./output/isobutyl_isobutyrate/isobutyl_isobutyrate_atom8.inp "" > ./output/isobutyl_isobutyrate/isobutyl_isobutyrate_atom8.out
Returned from the atomic calculation with res=0
Calculating cut-offs                               ... done
Initializing the effective Hamiltonian             ... done
Setting up the integral package (SHARK)            ... done
Starting the Coulomb interaction                   ... done (   0.0 sec)
Making the grid                                    ... done (   0.7 sec)
Mapping shells                                     ... done
Starting the XC term evaluation                    ... done (   0.0 sec)
  promolecular density results
     # of electrons  =     79.995250218
     EX              =    -41.331199393
     EC              =     -3.229578339
     EX+EC           =    -44.560777731
Transforming the Hamiltonian                       ... done (   0.1 sec)
Diagonalizing the Hamiltonian                      ... done (   0.0 sec)
Back transforming the eigenvectors                 ... done (   0.0 sec)
Now organizing SCF variables                       ... done
                      ------------------
                      INITIAL GUESS DONE (   2.2 sec)
                      ------------------
             **** ENERGY FILE WAS UPDATED (./output/isobutyl_isobutyrate/isobutyl_isobutyrate.en.tmp) ****
Finished Guess after   2.7 sec
Maximum memory used throughout the entire GUESS-calculation: 20.2 MB


           ************************************************************
           *        Program running with 40 parallel MPI-processes    *
           *              working on a common directory               *
           ************************************************************

-------------------------------------------------------------------------------------------
                                      ORCA LEAN-SCF
                              memory conserving SCF solver
-------------------------------------------------------------------------------------------

----------------------------------------D-I-I-S--------------------------------------------
Iteration    Energy (Eh)           Delta-E    RMSDP     MaxDP     DIISErr   Damp  Time(sec)
-------------------------------------------------------------------------------------------
               ***  Starting incremental Fock matrix formation  ***
    1    -86.9251656524957639     0.00e+00  3.27e-03  8.20e-02  1.88e-01  0.700   4.2
    2    -87.0984446927105864    -1.73e-01  2.34e-03  5.29e-02  1.07e-01  0.700   3.4
                               ***Turning on AO-DIIS***
    3    -87.1850031895221491    -8.66e-02  1.18e-03  2.42e-02  5.54e-02  0.700   3.0
    4    -87.2359812079807853    -5.10e-02  2.46e-03  4.55e-02  3.42e-02  0.000   2.9
    5    -87.3439986291269292    -1.08e-01  2.54e-04  8.94e-03  5.39e-03  0.000   2.8
    6    -87.3443125384680457    -3.14e-04  1.20e-04  6.14e-03  5.49e-03  0.000   3.1
                              *** Initializing SOSCF ***
---------------------------------------S-O-S-C-F--------------------------------------
Iteration    Energy (Eh)           Delta-E    RMSDP     MaxDP     MaxGrad    Time(sec)
--------------------------------------------------------------------------------------
    7    -87.3443965811695193    -8.40e-05  6.14e-05  2.06e-03  1.36e-03     3.2
               *** Restarting incremental Fock matrix formation ***
    8    -87.3443691030886384     2.75e-05  3.32e-05  9.80e-04  3.48e-04     3.9
    9    -87.3443726681709904    -3.57e-06  2.90e-05  1.01e-03  3.91e-04     3.5
   10    -87.3443736137127758    -9.46e-07  9.85e-06  3.20e-04  1.68e-04     3.4
   11    -87.3443739114906066    -2.98e-07  3.63e-06  8.75e-05  3.52e-05     3.4
   12    -87.3443739253531248    -1.39e-08  1.49e-06  6.05e-05  1.71e-05     3.4
   13    -87.3443739450438557    -1.97e-08  4.71e-07  1.61e-05  2.92e-06     3.1
   14    -87.3443739509750685    -5.93e-09  2.23e-07  5.36e-06  1.49e-06     3.1
                 **** Energy Check signals convergence ****

               *****************************************************
               *                     SUCCESS                       *
               *           SCF CONVERGED AFTER  14 CYCLES          *
               *****************************************************

Recomputing exchange energy using gridx3       ... done (    3.294 sec)
Old exchange energy                            :    -11.702411174 Eh
New exchange energy                            :    -11.702425510 Eh
Exchange energy change after final integration :     -0.000014336 Eh
Total energy after final integration           :    -87.344388287 Eh
             **** ENERGY FILE WAS UPDATED (./output/isobutyl_isobutyrate/isobutyl_isobutyrate.en.tmp) ****

----------------
TOTAL SCF ENERGY
----------------

Total Energy       :        -87.34438828726746 Eh           -2376.76164 eV

Components:
Nuclear Repulsion  :        315.18913842710106 Eh            8576.73249 eV
Electronic Energy  :       -402.53351237807613 Eh          -10953.49374 eV
One Electron Energy:       -758.58097607210436 Eh          -20642.03778 eV
Two Electron Energy:        356.04746369402824 Eh            9688.54404 eV

Virial components:
Potential Energy   :       -155.47263950367287 Eh           -4230.62560 eV
Kinetic Energy     :         68.12825121640540 Eh            1853.86396 eV
Virial Ratio       :          2.28205827579257

DFT components:
N(Alpha)           :       30.000062614168 electrons
N(Beta)            :       30.000062614168 electrons
N(Total)           :       60.000125228337 electrons
E(X)               :      -12.905532630376 Eh       
E(C)               :       -2.262749572837 Eh       
E(XC)              :      -15.168282203213 Eh       

---------------
SCF CONVERGENCE
---------------

  Last Energy change         ...    5.9312e-09  Tolerance :   1.0000e-08
  Last MAX-Density change    ...    5.3604e-06  Tolerance :   1.0000e-07
  Last RMS-Density change    ...    2.2317e-07  Tolerance :   5.0000e-09
  Last DIIS Error            ...    1.3626e-03  Tolerance :   5.0000e-07
  Last Orbital Gradient      ...    1.4852e-06  Tolerance :   1.0000e-05
  Last Orbital Rotation      ...    4.4670e-06  Tolerance :   1.0000e-05


----------------
ORBITAL ENERGIES
----------------

  NO   OCC          E(Eh)            E(eV) 
   0   2.0000      -1.209455       -32.9109 
   1   2.0000      -1.119276       -30.4570 
   2   2.0000      -0.957319       -26.0500 
   3   2.0000      -0.942513       -25.6471 
   4   2.0000      -0.844920       -22.9914 
   5   2.0000      -0.825848       -22.4725 
   6   2.0000      -0.816414       -22.2158 
   7   2.0000      -0.759560       -20.6687 
   8   2.0000      -0.707419       -19.2499 
   9   2.0000      -0.659442       -17.9443 
  10   2.0000      -0.629493       -17.1294 
  11   2.0000      -0.604385       -16.4462 
  12   2.0000      -0.586901       -15.9704 
  13   2.0000      -0.570046       -15.5117 
  14   2.0000      -0.561536       -15.2802 
  15   2.0000      -0.545607       -14.8467 
  16   2.0000      -0.533863       -14.5271 
  17   2.0000      -0.514257       -13.9936 
  18   2.0000      -0.505688       -13.7605 
  19   2.0000      -0.496708       -13.5161 
  20   2.0000      -0.493279       -13.4228 
  21   2.0000      -0.483704       -13.1622 
  22   2.0000      -0.464973       -12.6526 
  23   2.0000      -0.455661       -12.3992 
  24   2.0000      -0.450744       -12.2654 
  25   2.0000      -0.444539       -12.0965 
  26   2.0000      -0.437207       -11.8970 
  27   2.0000      -0.429252       -11.6805 
  28   2.0000      -0.397819       -10.8252 
  29   2.0000      -0.381067       -10.3694 
  30   0.0000       0.071678         1.9505 
  31   0.0000       0.082322         2.2401 
  32   0.0000       0.093810         2.5527 
  33   0.0000       0.102807         2.7975 
  34   0.0000       0.110153         2.9974 
  35   0.0000       0.120290         3.2733 
  36   0.0000       0.124536         3.3888 
  37   0.0000       0.127534         3.4704 
  38   0.0000       0.148565         4.0427 
  39   0.0000       0.152045         4.1373 
  40   0.0000       0.160419         4.3652 
*Only the first 10 virtual orbitals were printed.

                    ********************************
                    * MULLIKEN POPULATION ANALYSIS *
                    ********************************

-----------------------
MULLIKEN ATOMIC CHARGES
-----------------------
   0 C :   -0.063410
   1 C :   -0.096970
   2 C :   -0.091581
   3 C :    0.119606
   4 O :   -0.312923
   5 C :    0.276526
   6 O :   -0.358664
   7 C :   -0.089620
   8 C :   -0.068259
   9 C :   -0.072805
  10 H :    0.032700
  11 H :    0.040449
  12 H :    0.034564
  13 H :    0.065598
  14 H :    0.042600
  15 H :    0.032102
  16 H :    0.042713
  17 H :    0.055328
  18 H :    0.056507
  19 H :    0.060494
  20 H :    0.043852
  21 H :    0.037954
  22 H :    0.060825
  23 H :    0.060490
  24 H :    0.042489
  25 H :    0.049435
Sum of atomic charges:   -0.0000000

--------------------------------
MULLIKEN REDUCED ORBITAL CHARGES
--------------------------------
  0 C s       :     0.965140  s :     0.965140
      pz      :     1.028116  p :     3.025057
      px      :     1.039437
      py      :     0.957504
      dz2     :     0.016016  d :     0.073213
      dxz     :     0.011927
      dyz     :     0.013775
      dx2y2   :     0.012435
      dxy     :     0.019060

  1 C s       :     1.060441  s :     1.060441
      pz      :     1.028231  p :     2.915196
      px      :     0.954776
      py      :     0.932189
      dz2     :     0.024439  d :     0.121333
      dxz     :     0.024079
      dyz     :     0.019998
      dx2y2   :     0.025135
      dxy     :     0.027683

  2 C s       :     0.969319  s :     0.969319
      pz      :     1.039462  p :     3.048181
      px      :     0.969860
      py      :     1.038859
      dz2     :     0.010340  d :     0.074080
      dxz     :     0.020867
      dyz     :     0.011460
      dx2y2   :     0.018196
      dxy     :     0.013218

  3 C s       :     1.027504  s :     1.027504
      pz      :     1.043580  p :     2.716341
      px      :     0.684494
      py      :     0.988267
      dz2     :     0.025886  d :     0.136549
      dxz     :     0.030964
      dyz     :     0.013539
      dx2y2   :     0.038393
      dxy     :     0.027766

  4 O s       :     1.700360  s :     1.700360
      pz      :     1.580109  p :     4.576502
      px      :     1.258759
      py      :     1.737633
      dz2     :     0.007460  d :     0.036061
      dxz     :     0.011388
      dyz     :     0.003990
      dx2y2   :     0.005807
      dxy     :     0.007415

  5 C s       :     1.140825  s :     1.140825
      pz      :     0.747133  p :     2.339508
      px      :     0.838363
      py      :     0.754011
      dz2     :     0.065521  d :     0.243141
      dxz     :     0.070102
      dyz     :     0.041602
      dx2y2   :     0.028634
      dxy     :     0.037283

  6 O s       :     1.789789  s :     1.789789
      pz      :     1.371201  p :     4.535561
      px      :     1.751486
      py      :     1.412873
      dz2     :     0.010896  d :     0.033315
      dxz     :     0.006411
      dyz     :     0.010198
      dx2y2   :     0.003671
      dxy     :     0.002140

  7 C s       :     1.046466  s :     1.046466
      pz      :     1.050221  p :     2.922535
      px      :     0.904092
      py      :     0.968223
      dz2     :     0.029525  d :     0.120619
      dxz     :     0.012557
      dyz     :     0.023758
      dx2y2   :     0.025331
      dxy     :     0.029448

  8 C s       :     0.970979  s :     0.970979
      pz      :     1.012058  p :     3.024077
      px      :     1.043250
      py      :     0.968769
      dz2     :     0.024047  d :     0.073203
      dxz     :     0.004134
      dyz     :     0.014218
      dx2y2   :     0.007733
      dxy     :     0.023071

  9 C s       :     0.970671  s :     0.970671
      pz      :     1.062021  p :     3.029217
      px      :     0.965372
      py      :     1.001824
      dz2     :     0.015145  d :     0.072918
      dxz     :     0.005612
      dyz     :     0.020392
      dx2y2   :     0.014840
      dxy     :     0.016928

 10 H s       :     0.924265  s :     0.924265
      pz      :     0.021321  p :     0.043034
      px      :     0.012375
      py      :     0.009339

 11 H s       :     0.916134  s :     0.916134
      pz      :     0.014394  p :     0.043417
      px      :     0.014447
      py      :     0.014576

 12 H s       :     0.921536  s :     0.921536
      pz      :     0.009872  p :     0.043899
      px      :     0.021607
      py      :     0.012421

 13 H s       :     0.893378  s :     0.893378
      pz      :     0.020555  p :     0.041024
      px      :     0.011664
      py      :     0.008804

 14 H s       :     0.914184  s :     0.914184
      pz      :     0.011921  p :     0.043216
      px      :     0.009877
      py      :     0.021418

 15 H s       :     0.924870  s :     0.924870
      pz      :     0.020174  p :     0.043029
      px      :     0.012945
      py      :     0.009909

 16 H s       :     0.913947  s :     0.913947
      pz      :     0.014965  p :     0.043340
      px      :     0.014557
      py      :     0.013818

 17 H s       :     0.903746  s :     0.903746
      pz      :     0.012099  p :     0.040926
      px      :     0.006413
      py      :     0.022415

 18 H s       :     0.903942  s :     0.903942
      pz      :     0.022409  p :     0.039550
      px      :     0.008021
      py      :     0.009120

 19 H s       :     0.898687  s :     0.898687
      pz      :     0.021245  p :     0.040819
      px      :     0.008500
      py      :     0.011074

 20 H s       :     0.912572  s :     0.912572
      pz      :     0.010165  p :     0.043576
      px      :     0.020008
      py      :     0.013404

 21 H s       :     0.918717  s :     0.918717
      pz      :     0.010034  p :     0.043329
      px      :     0.017173
      py      :     0.016123

 22 H s       :     0.896309  s :     0.896309
      pz      :     0.022683  p :     0.042866
      px      :     0.009509
      py      :     0.010674

 23 H s       :     0.896586  s :     0.896586
      pz      :     0.022224  p :     0.042923
      px      :     0.009143
      py      :     0.011556

 24 H s       :     0.913969  s :     0.913969
      pz      :     0.010653  p :     0.043542
      px      :     0.020742
      py      :     0.012147

 25 H s       :     0.907549  s :     0.907549
      pz      :     0.015583  p :     0.043016
      px      :     0.009599
      py      :     0.017834



                     *******************************
                     * LOEWDIN POPULATION ANALYSIS *
                     *******************************

----------------------
LOEWDIN ATOMIC CHARGES
----------------------
   0 C :   -0.116201
   1 C :   -0.088098
   2 C :   -0.114775
   3 C :   -0.025418
   4 O :   -0.049898
   5 C :    0.039433
   6 O :   -0.193807
   7 C :   -0.085661
   8 C :   -0.101428
   9 C :   -0.101898
  10 H :    0.044596
  11 H :    0.048968
  12 H :    0.044748
  13 H :    0.054778
  14 H :    0.049462
  15 H :    0.044521
  16 H :    0.051997
  17 H :    0.054402
  18 H :    0.060797
  19 H :    0.062664
  20 H :    0.053467
  21 H :    0.049850
  22 H :    0.056513
  23 H :    0.056463
  24 H :    0.052238
  25 H :    0.052288

-------------------------------
LOEWDIN REDUCED ORBITAL CHARGES
-------------------------------
  0 C s       :     0.779710  s :     0.779710
      pz      :     1.049454  p :     3.094118
      px      :     1.062400
      py      :     0.982264
      dz2     :     0.053610  d :     0.242373
      dxz     :     0.038025
      dyz     :     0.045851
      dx2y2   :     0.040142
      dxy     :     0.064745

  1 C s       :     0.761803  s :     0.761803
      pz      :     1.023209  p :     2.945761
      px      :     0.968075
      py      :     0.954478
      dz2     :     0.078178  d :     0.380533
      dxz     :     0.077036
      dyz     :     0.061392
      dx2y2   :     0.078571
      dxy     :     0.085356

  2 C s       :     0.778855  s :     0.778855
      pz      :     1.060547  p :     3.094088
      px      :     0.983374
      py      :     1.050166
      dz2     :     0.032371  d :     0.241832
      dxz     :     0.070742
      dyz     :     0.037642
      dx2y2   :     0.058200
      dxy     :     0.042877

  3 C s       :     0.769611  s :     0.769611
      pz      :     1.057710  p :     2.845545
      px      :     0.772180
      py      :     1.015655
      dz2     :     0.080309  d :     0.410262
      dxz     :     0.091761
      dyz     :     0.041676
      dx2y2   :     0.113213
      dxy     :     0.083303

  4 O s       :     1.398123  s :     1.398123
      pz      :     1.581737  p :     4.553086
      px      :     1.322582
      py      :     1.648767
      dz2     :     0.016343  d :     0.098689
      dxz     :     0.034180
      dyz     :     0.007548
      dx2y2   :     0.020994
      dxy     :     0.019624

  5 C s       :     0.785028  s :     0.785028
      pz      :     0.849582  p :     2.511684
      px      :     0.886268
      py      :     0.775834
      dz2     :     0.178141  d :     0.663856
      dxz     :     0.188889
      dyz     :     0.123716
      dx2y2   :     0.076526
      dxy     :     0.096583

  6 O s       :     1.557953  s :     1.557953
      pz      :     1.474072  p :     4.568409
      px      :     1.674184
      py      :     1.420153
      dz2     :     0.020714  d :     0.067445
      dxz     :     0.013815
      dyz     :     0.022211
      dx2y2   :     0.005263
      dxy     :     0.005442

  7 C s       :     0.758038  s :     0.758038
      pz      :     1.033786  p :     2.952521
      px      :     0.944453
      py      :     0.974282
      dz2     :     0.090445  d :     0.375102
      dxz     :     0.041142
      dyz     :     0.073968
      dx2y2   :     0.078157
      dxy     :     0.091390

  8 C s       :     0.779460  s :     0.779460
      pz      :     1.023000  p :     3.081774
      px      :     1.061436
      py      :     0.997338
      dz2     :     0.081960  d :     0.240195
      dxz     :     0.012416
      dyz     :     0.043675
      dx2y2   :     0.024702
      dxy     :     0.077441

  9 C s       :     0.779695  s :     0.779695
      pz      :     1.070784  p :     3.083031
      px      :     0.993306
      py      :     1.018941
      dz2     :     0.048022  d :     0.239172
      dxz     :     0.018673
      dyz     :     0.068053
      dx2y2   :     0.051532
      dxy     :     0.052893

 10 H s       :     0.810526  s :     0.810526
      pz      :     0.062803  p :     0.144878
      px      :     0.044520
      py      :     0.037555

 11 H s       :     0.805940  s :     0.805940
      pz      :     0.048493  p :     0.145092
      px      :     0.049206
      py      :     0.047393

 12 H s       :     0.807409  s :     0.807409
      pz      :     0.040055  p :     0.147843
      px      :     0.063065
      py      :     0.044724

 13 H s       :     0.795866  s :     0.795866
      pz      :     0.065627  p :     0.149356
      px      :     0.045109
      py      :     0.038620

 14 H s       :     0.804759  s :     0.804759
      pz      :     0.043981  p :     0.145779
      px      :     0.038724
      py      :     0.063074

 15 H s       :     0.809904  s :     0.809904
      pz      :     0.060698  p :     0.145575
      px      :     0.044949
      py      :     0.039928

 16 H s       :     0.803513  s :     0.803513
      pz      :     0.049394  p :     0.144490
      px      :     0.047348
      py      :     0.047747

 17 H s       :     0.806297  s :     0.806297
      pz      :     0.044811  p :     0.139301
      px      :     0.025900
      py      :     0.068590

 18 H s       :     0.804620  s :     0.804620
      pz      :     0.067037  p :     0.134583
      px      :     0.029607
      py      :     0.037938

 19 H s       :     0.791896  s :     0.791896
      pz      :     0.067340  p :     0.145440
      px      :     0.035090
      py      :     0.043010

 20 H s       :     0.802543  s :     0.802543
      pz      :     0.039783  p :     0.143990
      px      :     0.060037
      py      :     0.044171

 21 H s       :     0.805401  s :     0.805401
      pz      :     0.039765  p :     0.144749
      px      :     0.054486
      py      :     0.050498

 22 H s       :     0.799409  s :     0.799409
      pz      :     0.064525  p :     0.144079
      px      :     0.039383
      py      :     0.040170

 23 H s       :     0.799015  s :     0.799015
      pz      :     0.064344  p :     0.144522
      px      :     0.037698
      py      :     0.042480

 24 H s       :     0.803577  s :     0.803577
      pz      :     0.041708  p :     0.144185
      px      :     0.058975
      py      :     0.043502

 25 H s       :     0.803104  s :     0.803104
      pz      :     0.051402  p :     0.144608
      px      :     0.038053
      py      :     0.055153



                      *****************************
                      * MAYER POPULATION ANALYSIS *
                      *****************************

  NA   - Mulliken gross atomic population
  ZA   - Total nuclear charge
  QA   - Mulliken gross atomic charge
  VA   - Mayer's total valence
  BVA  - Mayer's bonded valence
  FA   - Mayer's free valence

  ATOM       NA         ZA         QA         VA         BVA        FA
  0 C      4.0634     4.0000    -0.0634     3.9514     3.9514    -0.0000
  1 C      4.0970     4.0000    -0.0970     4.0136     4.0136    -0.0000
  2 C      4.0916     4.0000    -0.0916     3.9821     3.9821    -0.0000
  3 C      3.8804     4.0000     0.1196     3.8871     3.8871    -0.0000
  4 O      6.3129     6.0000    -0.3129     2.0138     2.0138    -0.0000
  5 C      3.7235     4.0000     0.2765     4.0585     4.0585     0.0000
  6 O      6.3587     6.0000    -0.3587     2.0021     2.0021     0.0000
  7 C      4.0896     4.0000    -0.0896     4.0147     4.0147    -0.0000
  8 C      4.0683     4.0000    -0.0683     3.9606     3.9606     0.0000
  9 C      4.0728     4.0000    -0.0728     3.9602     3.9602    -0.0000
 10 H      0.9673     1.0000     0.0327     1.0304     1.0304    -0.0000
 11 H      0.9596     1.0000     0.0404     1.0252     1.0252     0.0000
 12 H      0.9654     1.0000     0.0346     1.0248     1.0248    -0.0000
 13 H      0.9344     1.0000     0.0656     1.0099     1.0099     0.0000
 14 H      0.9574     1.0000     0.0426     1.0285     1.0285    -0.0000
 15 H      0.9679     1.0000     0.0321     1.0325     1.0325    -0.0000
 16 H      0.9573     1.0000     0.0427     1.0299     1.0299     0.0000
 17 H      0.9447     1.0000     0.0553     1.0208     1.0208    -0.0000
 18 H      0.9435     1.0000     0.0565     1.0199     1.0199    -0.0000
 19 H      0.9395     1.0000     0.0605     1.0169     1.0169     0.0000
 20 H      0.9561     1.0000     0.0439     1.0271     1.0271    -0.0000
 21 H      0.9620     1.0000     0.0380     1.0315     1.0315     0.0000
 22 H      0.9392     1.0000     0.0608     1.0290     1.0290    -0.0000
 23 H      0.9395     1.0000     0.0605     1.0302     1.0302    -0.0000
 24 H      0.9575     1.0000     0.0425     1.0282     1.0282    -0.0000
 25 H      0.9506     1.0000     0.0494     1.0269     1.0269    -0.0000

  Mayer bond orders larger than 0.100000
B(  0-C ,  1-C ) :   0.9888 B(  0-C , 10-H ) :   0.9925 B(  0-C , 11-H ) :   0.9976 
B(  0-C , 12-H ) :   0.9988 B(  1-C ,  2-C ) :   1.0051 B(  1-C ,  3-C ) :   0.9733 
B(  1-C , 13-H ) :   0.9868 B(  2-C , 14-H ) :   0.9967 B(  2-C , 15-H ) :   0.9917 
B(  2-C , 16-H ) :   0.9954 B(  3-C ,  4-O ) :   0.8797 B(  3-C , 17-H ) :   1.0009 
B(  3-C , 18-H ) :   1.0038 B(  4-O ,  5-C ) :   1.1085 B(  5-C ,  6-O ) :   1.9132 
B(  5-C ,  7-C ) :   1.0104 B(  7-C ,  8-C ) :   0.9809 B(  7-C ,  9-C ) :   0.9860 
B(  7-C , 19-H ) :   0.9862 B(  8-C , 20-H ) :   0.9940 B(  8-C , 21-H ) :   0.9980 
B(  8-C , 22-H ) :   0.9880 B(  9-C , 23-H ) :   0.9879 B(  9-C , 24-H ) :   0.9943 
B(  9-C , 25-H ) :   0.9949 

-------
TIMINGS
-------

Total SCF time: 0 days 0 hours 0 min 54 sec 

Total time                  ....      54.128 sec
Sum of individual times     ....      52.113 sec  ( 96.3%)

SCF preparation             ....       2.238 sec  (  4.1%)
Fock matrix formation       ....      48.284 sec  ( 89.2%)
  Startup                   ....       0.373 sec  (  0.8% of F)
  Split-RI-J                ....       1.731 sec  (  3.6% of F)
  Chain of spheres X        ....      21.074 sec  ( 43.6% of F)
  XC integration            ....      24.334 sec  ( 50.4% of F)
    XC Preparation          ....       0.000 sec  (  0.0% of XC)
    Basis function eval.    ....       0.564 sec  (  2.3% of XC)
    Density eval.           ....       0.225 sec  (  0.9% of XC)
    XC-Functional eval.     ....       0.192 sec  (  0.8% of XC)
    XC-Potential eval.      ....       0.267 sec  (  1.1% of XC)
Diagonalization             ....       0.000 sec  (  0.0%)
Density matrix formation    ....       0.355 sec  (  0.7%)
Total Energy calculation    ....       0.301 sec  (  0.6%)
Population analysis         ....       0.132 sec  (  0.2%)
Orbital Transformation      ....       0.055 sec  (  0.1%)
Orbital Orthonormalization  ....       0.000 sec  (  0.0%)
DIIS solution               ....       0.417 sec  (  0.8%)
SOSCF solution              ....       0.332 sec  (  0.6%)
Finished LeanSCF after  54.2 sec

Maximum memory used throughout the entire LEANSCF-calculation: 38.4 MB


           ************************************************************
           *        Program running with 40 parallel MPI-processes    *
           *              working on a common directory               *
           ************************************************************

------------------------------------------------------------------------------
                         ORCA PROPERTY INTEGRAL CALCULATIONS
------------------------------------------------------------------------------

GBWName                                   ... ./output/isobutyl_isobutyrate/isobutyl_isobutyrate.gbw
Number of atoms                           ...     26
Number of basis functions                 ...    210
Max core memory                           ...   1024 MB

Dipole integrals                          ... YES
Quadrupole integrals                      ...  NO
Linear momentum integrals                 ...  NO
Angular momentum integrals                ...  NO
Higher moments length integrals           ...  NO
Higher moments velocity integrals         ...  NO
Kinetic energy integrals                  ...  NO
GIAO right hand sides                     ...  NO
GIAO dipole derivative integrals          ...  NO
SOC integrals                             ...  NO
EPR diamagnetic integrals (GIAO)          ...  NO
EPR gauge integrals                       ...  NO
Field gradient integrals                  ...  NO (   0 nuclei)
Spin-dipole/Fermi contact integrals       ...  NO (   0 nuclei)
Contact density integrals                 ...  NO (   0 nuclei)
Nucleus-orbit integrals                   ...  NO (   0 nuclei)
Geometric perturbations                   ...  NO (  26 nuclei)

Choice of electric origin   ... Center of mass
Position of electric origin ... (  0.2299, -0.3429,  0.2827) 
Choice of magnetic origin   ... GIAO
Position of magnetic origin ... (  0.0000,  0.0000,  0.0000) 

Calculating integrals                     ... Electric Dipole (Length)     done (  0.0 sec)

Property integrals calculated in   0.0 sec

Maximum memory used throughout the entire PROPINT-calculation: 16.4 MB


-------------------------------------------------------------------------------
                          DFT DISPERSION CORRECTION                            
                                                                               
                                DFTD4 V3.4.0                                   
-------------------------------------------------------------------------------
The wB97X-3c composite method is recognized
Using three-body term ABC
Active option DFTDOPT                   ...         5   

-------------------------   ----------------
Dispersion correction           -0.025364241
-------------------------   ----------------


-------------------------   --------------------
FINAL SINGLE POINT ENERGY       -87.369752528366
-------------------------   --------------------



           ************************************************************
           *        Program running with 40 parallel MPI-processes    *
           *              working on a common directory               *
           ************************************************************
------------------------------------------------------------------------------
                         ORCA SCF GRADIENT CALCULATION
------------------------------------------------------------------------------

Nuc. rep. gradient        (SHARK) ... done (  0.0 sec)
HCore & Overlap gradient  (SHARK) ... done (  0.0 sec)
ECP gradient              (SHARK) ... done (  0.4 sec)
Split-RIJ-J gradient      (SHARK) ... done (  0.4 sec)
COSX-gradient                     ... done (  4.5 sec)
XC gradient                       ... done (  1.6 sec)
[...]
 20:    436.16   0.000878    4.44  0.000628  ( 0.020153 -0.010708 -0.010371)
 21:    449.04   0.000288    1.46  0.000200  ( 0.003158 -0.006875  0.011965)
 22:    570.13   0.000309    1.56  0.000169  (-0.004876 -0.008122  0.008916)
 23:    665.66   0.000925    4.67  0.000434  (-0.018149 -0.005225 -0.008767)
 24:    785.98   0.001402    7.09  0.000557  (-0.009290  0.013730 -0.016790)
 25:    851.43   0.001882    9.51  0.000690  (-0.006229 -0.011716 -0.022666)
 26:    863.66   0.000953    4.82  0.000344  ( 0.004189  0.013795 -0.011683)
 27:    930.14   0.000511    2.58  0.000172  (-0.002099 -0.010528  0.007503)
 28:    955.05   0.000248    1.25  0.000081  ( 0.007214  0.005391  0.000040)
 29:    960.23   0.000447    2.26  0.000145  (-0.005517  0.010162 -0.003387)
 30:    970.17   0.001846    9.33  0.000594  ( 0.017704  0.011305  0.012357)
 31:    985.39   0.000441    2.23  0.000140  ( 0.003515  0.011285 -0.000306)
 32:   1001.90   0.000589    2.98  0.000184  ( 0.011839 -0.004939 -0.004355)
 33:   1008.49   0.000174    0.88  0.000054  ( 0.002836 -0.006616  0.001456)
 34:   1072.40   0.005131   25.93  0.001493  ( 0.037061  0.006040  0.009116)
 35:   1147.95   0.002206   11.15  0.000600  (-0.020105 -0.013600 -0.003238)
 36:   1181.26   0.003482   17.60  0.000920  (-0.029329  0.004516  0.006279)
 37:   1190.11   0.000160    0.81  0.000042  (-0.001833  0.000023 -0.006212)
 38:   1221.12   0.016332   82.54  0.004174  (-0.061776  0.001943  0.018810)
 39:   1227.27   0.008549   43.20  0.002174  (-0.042695  0.002991  0.018493)
 40:   1234.21   0.000845    4.27  0.000214  ( 0.013603 -0.004427 -0.003013)
 41:   1262.82   0.059266  299.51  0.014646  (-0.113484  0.011798  0.040345)
 42:   1349.34   0.007181   36.29  0.001661  (-0.036507  0.008533  0.015977)
 43:   1369.97   0.001586    8.02  0.000361  ( 0.018041 -0.000800 -0.005932)
 44:   1372.05   0.001080    5.46  0.000246  ( 0.014376  0.004203 -0.004607)
 45:   1407.41   0.000386    1.95  0.000086  (-0.007882  0.002965  0.003836)
 46:   1424.44   0.011192   56.56  0.002452  ( 0.044219 -0.013792 -0.017502)
 47:   1441.37   0.005399   27.29  0.001169  (-0.026770  0.003050  0.021049)
 48:   1443.77   0.003982   20.12  0.000861  (-0.017627 -0.023308  0.002600)
 49:   1452.34   0.004739   23.95  0.001018  (-0.028255  0.010543  0.010431)
 50:   1456.88   0.000606    3.06  0.000130  (-0.003386 -0.000294  0.010873)
 51:   1469.60   0.001713    8.66  0.000364  ( 0.015053  0.009825 -0.006380)
 52:   1512.57   0.000877    4.43  0.000181  ( 0.009505  0.005373 -0.007862)
 53:   1516.36   0.001005    5.08  0.000207  ( 0.004277 -0.013229  0.003682)
 54:   1516.94   0.000005    0.03  0.000001  (-0.000979  0.000311 -0.000005)
 55:   1519.64   0.000138    0.70  0.000028  (-0.001768  0.002081  0.004573)
 56:   1525.87   0.002420   12.23  0.000495  (-0.012411 -0.015557  0.009939)
 57:   1531.43   0.003924   19.83  0.000800  (-0.004001  0.005892  0.027365)
 58:   1534.95   0.000908    4.59  0.000185  ( 0.010325 -0.004534 -0.007573)
 59:   1542.06   0.003356   16.96  0.000679  (-0.002399 -0.009693  0.024072)
 60:   1545.58   0.009513   48.08  0.001921  ( 0.042097  0.011142  0.004945)
 61:   1867.75   0.047862  241.88  0.007997  (-0.001440 -0.068418 -0.057565)
 62:   3094.88   0.005819   29.41  0.000587  ( 0.016515  0.017694  0.000965)
 63:   3098.41   0.004925   24.89  0.000496  (-0.015673  0.015094  0.004753)
 64:   3105.54   0.004703   23.77  0.000473  (-0.000727  0.020719 -0.006543)
 65:   3113.56   0.004903   24.78  0.000491  ( 0.020595 -0.004201 -0.007042)
 66:   3118.80   0.000270    1.37  0.000027  (-0.002628  0.004269  0.001382)
 67:   3128.71   0.001625    8.21  0.000162  (-0.000514 -0.001858  0.012585)
 68:   3132.53   0.007141   36.09  0.000711  (-0.016860 -0.009486  0.018361)
 69:   3181.78   0.000912    4.61  0.000089  (-0.000612 -0.008997 -0.002854)
 70:   3185.29   0.006032   30.48  0.000591  ( 0.004575  0.001238 -0.023843)
 71:   3196.53   0.002710   13.69  0.000265  ( 0.005473 -0.012500  0.008849)
 72:   3197.30   0.002103   10.63  0.000205  ( 0.008404  0.005846  0.010021)
 73:   3202.35   0.002031   10.27  0.000198  ( 0.004310 -0.010633 -0.008145)
 74:   3202.54   0.003325   16.80  0.000324  ( 0.017686  0.001994  0.002681)
 75:   3206.58   0.002865   14.48  0.000279  (-0.010093 -0.013151 -0.001994)
 76:   3210.34   0.002151   10.87  0.000209  (-0.012128  0.004862  0.006190)
 77:   3213.75   0.002114   10.68  0.000205  ( 0.003514 -0.004229  0.013230)

* The epsilon (eps) is given for a Dirac delta lineshape.
** The dipole moment derivative (T) already includes vibrational overlap.

The first frequency considered to be a vibration is 6
The total number of vibrations considered is 72


--------------------------
THERMOCHEMISTRY AT 298.15K
--------------------------

Temperature         ...   298.15 K
Pressure            ...     1.00 atm
Total Mass          ...   144.21 AMU
Quasi RRHO          ...     True
Cut-Off Frequency   ...     1.00 cm^-1

Throughout the following assumptions are being made:
  (1) The electronic state is orbitally nondegenerate
  (2) There are no thermally accessible electronically excited states
  (3) Hindered rotations indicated by low frequency modes are not
      treated as such but are treated as vibrations and this may
      cause some error
  (4) All equations used are the standard statistical mechanics
      equations for an ideal gas
  (5) All vibrations are strictly harmonic

freq.      21.81  E(vib)   ...       0.56 
freq.      55.25  E(vib)   ...       0.52 
freq.      63.21  E(vib)   ...       0.51 
freq.      83.43  E(vib)   ...       0.48 
freq.     204.47  E(vib)   ...       0.35 
freq.     217.11  E(vib)   ...       0.34 
freq.     220.85  E(vib)   ...       0.33 
freq.     228.85  E(vib)   ...       0.32 
freq.     242.46  E(vib)   ...       0.31 
freq.     276.31  E(vib)   ...       0.28 
freq.     300.37  E(vib)   ...       0.26 
freq.     322.33  E(vib)   ...       0.25 
freq.     345.74  E(vib)   ...       0.23 
freq.     386.26  E(vib)   ...       0.20 
freq.     436.16  E(vib)   ...       0.17 
freq.     449.04  E(vib)   ...       0.17 
freq.     570.13  E(vib)   ...       0.11 
freq.     665.66  E(vib)   ...       0.08 
freq.     785.98  E(vib)   ...       0.05 
freq.     851.43  E(vib)   ...       0.04 
freq.     863.66  E(vib)   ...       0.04 
freq.     930.14  E(vib)   ...       0.03 
freq.     955.05  E(vib)   ...       0.03 
freq.     960.23  E(vib)   ...       0.03 
freq.     970.17  E(vib)   ...       0.03 
freq.     985.39  E(vib)   ...       0.02 
freq.    1001.90  E(vib)   ...       0.02 
freq.    1008.49  E(vib)   ...       0.02 
freq.    1072.40  E(vib)   ...       0.02 
freq.    1147.95  E(vib)   ...       0.01 
freq.    1181.26  E(vib)   ...       0.01 
freq.    1190.11  E(vib)   ...       0.01 
freq.    1221.12  E(vib)   ...       0.01 
freq.    1227.27  E(vib)   ...       0.01 
freq.    1234.21  E(vib)   ...       0.01 
freq.    1262.82  E(vib)   ...       0.01 
freq.    1349.34  E(vib)   ...       0.01 
freq.    1369.97  E(vib)   ...       0.01 
freq.    1372.05  E(vib)   ...       0.01 
freq.    1407.41  E(vib)   ...       0.00 
freq.    1424.44  E(vib)   ...       0.00 
freq.    1441.37  E(vib)   ...       0.00 
freq.    1443.77  E(vib)   ...       0.00 
freq.    1452.34  E(vib)   ...       0.00 
freq.    1456.88  E(vib)   ...       0.00 
freq.    1469.60  E(vib)   ...       0.00 
freq.    1512.57  E(vib)   ...       0.00 
freq.    1516.36  E(vib)   ...       0.00 
freq.    1516.94  E(vib)   ...       0.00 
freq.    1519.64  E(vib)   ...       0.00 
freq.    1525.87  E(vib)   ...       0.00 
freq.    1531.43  E(vib)   ...       0.00 
freq.    1534.95  E(vib)   ...       0.00 
freq.    1542.06  E(vib)   ...       0.00 
freq.    1545.58  E(vib)   ...       0.00 
freq.    1867.75  E(vib)   ...       0.00 
freq.    3094.88  E(vib)   ...       0.00 
freq.    3098.41  E(vib)   ...       0.00 
freq.    3105.54  E(vib)   ...       0.00 
freq.    3113.56  E(vib)   ...       0.00 
freq.    3118.80  E(vib)   ...       0.00 
freq.    3128.71  E(vib)   ...       0.00 
freq.    3132.53  E(vib)   ...       0.00 
freq.    3181.78  E(vib)   ...       0.00 
freq.    3185.29  E(vib)   ...       0.00 
freq.    3196.53  E(vib)   ...       0.00 
freq.    3197.30  E(vib)   ...       0.00 
freq.    3202.35  E(vib)   ...       0.00 
freq.    3202.54  E(vib)   ...       0.00 
freq.    3206.58  E(vib)   ...       0.00 
freq.    3210.34  E(vib)   ...       0.00 
freq.    3213.75  E(vib)   ...       0.00 

------------
INNER ENERGY
------------

The inner energy is: U= E(el) + E(ZPE) + E(vib) + E(rot) + E(trans)
    E(el)   - is the total energy from the electronic structure calculation
              = E(kin-el) + E(nuc-el) + E(el-el) + E(nuc-nuc)
    E(ZPE)  - the the zero temperature vibrational energy from the frequency calculation
    E(vib)  - the the finite temperature correction to E(ZPE) due to population
              of excited vibrational states
    E(rot)  - is the rotational thermal energy
    E(trans)- is the translational thermal energy

Summary of contributions to the inner energy U:
Electronic energy                ...    -87.39113845 Eh
Zero point energy                ...      0.23767721 Eh     149.14 kcal/mol
Thermal vibrational correction   ...      0.00947114 Eh       5.94 kcal/mol
Thermal rotational correction    ...      0.00141627 Eh       0.89 kcal/mol
Thermal translational correction ...      0.00141627 Eh       0.89 kcal/mol
-----------------------------------------------------------------------
Total thermal energy                    -87.14115756 Eh


Summary of corrections to the electronic energy:
(perhaps to be used in another calculation)
Total thermal correction                  0.01230368 Eh       7.72 kcal/mol
Non-thermal (ZPE) correction              0.23767721 Eh     149.14 kcal/mol
-----------------------------------------------------------------------
Total correction                          0.24998089 Eh     156.87 kcal/mol


--------
ENTHALPY
--------

The enthalpy is H = U + kB*T
                kB is Boltzmann's constant
Total thermal energy              ...    -87.14115756 Eh 
Thermal Enthalpy correction       ...      0.00094421 Eh       0.59 kcal/mol
-----------------------------------------------------------------------
Total Enthalpy                    ...    -87.14021335 Eh


Note: Only C1 symmetry has been detected, increase convergence thresholds 
      if your molecule has a higher symmetry. Symmetry factor of 1.0 is   
      used for the rotational entropy correction. 
 

Note: Rotational entropy computed according to Herzberg 
Infrared and Raman Spectra, Chapter V,1, Van Nostrand Reinhold, 1945 
Point Group:  C1, Symmetry Number:   1  
Rotational constants in cm-1:     0.088763     0.022828     0.020354 

Vibrational entropy computed according to the QRRHO of S. Grimme
Chem.Eur.J. 2012 18 9955 using a reference frequency of 100.0 cm-1


-------
ENTROPY
-------

The entropy contributions are T*S = T*(S(el)+S(vib)+S(rot)+S(trans))
     S(el)   - electronic entropy
     S(vib)  - vibrational entropy
     S(rot)  - rotational entropy
     S(trans)- translational entropy
The entropies will be listed as multiplied by the temperature to get
units of energy

Electronic entropy                ...      0.00000000 Eh      0.00 kcal/mol
Vibrational entropy               ...      0.01675507 Eh     10.51 kcal/mol
Rotational entropy                ...      0.01427705 Eh      8.96 kcal/mol
Translational entropy             ...      0.01938978 Eh     12.17 kcal/mol
-----------------------------------------------------------------------
Final entropy term                ...      0.05042190 Eh     31.64 kcal/mol

In case the symmetry of your molecule has not been determined correctly
or in case you have a reason to use a different symmetry number we print 
out the resulting rotational entropy values for sn=1,12:

 non-linear molecules -----------------------------------
|  sn= 1 | S(rot)=       0.01427705 Eh      8.96 kcal/mol|
|  sn= 2 | S(rot)=       0.01362259 Eh      8.55 kcal/mol|
|  sn= 3 | S(rot)=       0.01323976 Eh      8.31 kcal/mol|
|  sn= 4 | S(rot)=       0.01296814 Eh      8.14 kcal/mol|
|  sn= 5 | S(rot)=       0.01275745 Eh      8.01 kcal/mol|
|  sn= 6 | S(rot)=       0.01258531 Eh      7.90 kcal/mol|
|  sn= 7 | S(rot)=       0.01243976 Eh      7.81 kcal/mol|
|  sn= 8 | S(rot)=       0.01231368 Eh      7.73 kcal/mol|
|  sn= 9 | S(rot)=       0.01220247 Eh      7.66 kcal/mol|
|  sn=10 | S(rot)=       0.01210299 Eh      7.59 kcal/mol|
|  sn=11 | S(rot)=       0.01201300 Eh      7.54 kcal/mol|
|  sn=12 | S(rot)=       0.01193085 Eh      7.49 kcal/mol|
 linear molecules ---------------------------------------
|  Dinfh | S(rot)=       0.00900289 Eh      5.65 kcal/mol|
|  Cinfv | S(rot)=       0.00965734 Eh      6.06 kcal/mol|
 --------------------------------------------------------


-------------------
GIBBS FREE ENERGY
-------------------

The Gibbs free energy is G = H - T*S

Total enthalpy                    ...    -87.14021335 Eh 
Total entropy correction          ...     -0.05042190 Eh    -31.64 kcal/mol
-----------------------------------------------------------------------
Final Gibbs free energy         ...    -87.19063525 Eh

For completeness - the Gibbs free energy minus the electronic energy
G-E(el)                           ...      0.20050320 Eh    125.82 kcal/mol


Maximum memory used throughout the entire PROP-calculation: 113.0 MB

--------------------------------
SUGGESTED CITATIONS FOR THIS RUN
--------------------------------

Below you find a list of papers that are relevant to this ORCA run
We neither can nor want to force you to cite these papers, but we appreciate if you do
You receive ORCA, which is the product of decades of hard work by many enthusiastic individuals, for free
The only thing we kindly ask in return is that you cite our papers,
We deeply appreciate it, if you show your appreciation for ORCA by not just citing the generic ORCA reference.

Please note that relegating all ORCA citations to the supporting information does *not* help us.
SI sections are not indexed - citations you put there will not count into any citation statistics
But we need these citations in order to attract the funding resources that allow us to do what we are doing

Therefore, if you are a happy ORCA user, please consider citing a few of the papers listed below in the main body of your paper

In addition to the list printed below, the program has created the file ./output/isobutyl_isobutyrate/isobutyl_isobutyrate.bibtex that contains the list in bibtex format
You can import this file easily into all common literature databanks and citation aid programs


List of essential papers. We consider these as the minimum necessary citations

  1. Neese,F.
     Software update: the ORCA program system, version 5.0
     WIRES Comput. Molec. Sci., 2022 12(1)e1606
     doi.org/10.1002/wcms.1606
  2. Mueller,M.; Hansen,A.; Grimme,S.
     wB97X-3c: A composite range-separated hybrid DFT method with a molecule-optimized polarized valence double-zeta basis set
     J. Chem. Phys., 2023 158 014103
     doi.org/10.1063/5.0133026

List of papers to cite with high priority. The work reported in these papers was absolutely
necessary for this run to complete.
Our perspective: the developers of density functionals and basis sets usually get cited in chemistry papers
Good! But without the algorithms to do something with them, the functionals or basis sets would not do anything.
Hence, in our opinion, the algorithm design and method developments papers are equally worthy of getting cited

  1. Neese,F.
     An improvement of the resolution of the identity approximation for the formation of the Coulomb matrix
     J. Comp. Chem., 2003 24(14)1740-1747
     doi.org/10.1002/jcc.10318
  2. Neese,F.; Wennmohs,F.; Hansen,A.; Becker,U.
     Efficient, approximate and parallel Hartree-Fock and hybrid DFT calculations. A 'chain-of-spheres' algorithm for the Hartree-Fock exchange
     Chem. Phys., 2009 356(1-3)98-109
     doi.org/10.1016/j.chemphys.2008.10.036
  3. Bykov,D.; Petrenko,T.; Izsak,R.; Kossmann,S.; Becker,U.; Valeev,E.; Neese,F.
     Efficient implementation of the analytic second derivatives of Hartree-Fock and hybrid DFT energies: a detailed analysis of different approximations
     Molec. Phys., 2015 113 1961-1977
     doi.org/10.1080/00268976.2015.1025114
  4. Helmich-Paris,B.; de Souza,B.; Neese,F.; Izsák,R.
     An improved chain of spheres for exchange algorithm
     J. Chem. Phys., 2021 155 104109
     doi.org/doi: 10.1063/5.0058766.
  5. Neese,F.
     The SHARK Integral Generation and Digestion System
     J. Comp. Chem., 2022  1-16
     doi.org/10.1002/jcc.26942
  6. Caldeweyher,E.; Bannwarth,C.; Grimme,S.
     Extension of the D3 dispersion coefficient model
     J. Chem. Phys., 2017 147 034112
     doi.org/10.1063/1.4993215
  7. Caldeweyher,E.; Ehlert,S.; Hansen,A.; Neugebauer,H.; Spicher,S.; Bannwarth,C.; Grimme,S.
     A generally applicable atomic-charge dependent London dispersion correction
     J. Chem. Phys., 2019 150 154122
     doi.org/10.1063/1.5090222
  8. Caldeweyher,E.; Mewes,J.; Ehlert,S.; Grimme,S.
     Extension and evaluation of the D4 London-dispersion model for periodic systems
     Phys. Chem. Chem. Phys., 2020 22(16)8499-8512
     doi.org/10.1039/D0CP00502A
  9. Wittmann,L.; Gordiy,I.; Friede,M.; Helmich-Paris,B.; Grimme,S.; Hansen,A.; Bursch,M.
     Extension of the D3 and D4 London Dispersion Corrections to the full Actinides Series
     Phys. Chem. Chem. Phys., 2024 26(32)21379-21394
     doi.org/https://doi.org/10.1039/D4CP01514B 

List of suggested additional citations. These are papers that are important in the 'surrounding' of 
of this run, or papers that preceded the highly important papers. If you like your results we are grateful for a citation.

  1. Izsak,R.; Neese,F.
     An overlap fitted chain of spheres exchange method
     J. Chem. Phys., 2011 135 144105
     doi.org/10.1063/1.3646921
  2. Izsak,R.; Hansen,A.; Neese,F.
     The resolution of identity and chain of spheres approximations for the LPNO-CCSD singles Fock term
     Molec. Phys., 2012 110 2413-2417
     doi.org/10.1080/00268976.2012.687466
  3. Neese,F.
     The ORCA program system
     WIRES Comput. Molec. Sci., 2012 2(1)73-78
     doi.org/10.1002/wcms.81
  4. Izsak,R.; Neese,F.; Klopper,W.
     Robust fitting techniques in the chain of spheres approximation to the Fock exchange: The role of the complementary space
     J. Chem. Phys., 2013 139 
     doi.org/10.1063/1.4819264
  5. Neese,F.
     Software update: the ORCA program system, version 4.0
     WIRES Comput. Molec. Sci., 2018 8(1)1-6
     doi.org/10.1002/wcms.1327
  6. Neese,F.; Wennmohs,F.; Becker,U.; Riplinger,C.
     The ORCA quantum chemistry program package
     J. Chem. Phys., 2020 152 Art. No. L224108
     doi.org/10.1063/5.0004608

List of optional additional citations

  1. Neese,F.
     Approximate second-order SCF convergence for spin unrestricted wavefunctions
     Chem. Phys. Lett., 2000 325(1-3)93-98
     doi.org/10.1016/s0009-2614(00)00662-x

Timings for individual modules:

Sum of individual times          ...     1043.158 sec (=  17.386 min)
Startup calculation              ...       63.299 sec (=   1.055 min)   6.1 %
SCF iterations                   ...      690.667 sec (=  11.511 min)  66.2 %
Property integrals               ...       52.683 sec (=   0.878 min)   5.1 %
SCF Response                     ...       35.070 sec (=   0.585 min)   3.4 %
Property calculations            ...       65.771 sec (=   1.096 min)   6.3 %
SCF Gradient evaluation          ...      135.198 sec (=   2.253 min)  13.0 %
Geometry relaxation              ...        0.470 sec (=   0.008 min)   0.0 %
                             ****ORCA TERMINATED NORMALLY****
TOTAL RUN TIME: 0 days 0 hours 17 minutes 32 seconds 48 msec
