
                                 *****************
                                 * O   R   C   A *
                                 *****************

                                            #,                                       
                                            ###                                      
                                            ####                                     
                                            #####                                    
                                            ######                                   
                                           ########,                                 
                                     ,,################,,,,,                         
                               ,,#################################,,                 
                          ,,##########################################,,             
                       ,#########################################, ''#####,          
                    ,#############################################,,   '####,        
                  ,##################################################,,,,####,       
                ,###########''''           ''''###############################       
              ,#####''   ,,,,##########,,,,          '''####'''          '####       
            ,##' ,,,,###########################,,,                        '##       
           ' ,,###''''                  '''############,,,                           
         ,,##''                                '''############,,,,        ,,,,,,###''
      ,#''                                            '''#######################'''  
     '                                                          ''''####''''         
             ,#######,   #######,   ,#######,      ##                                
            ,#'     '#,  ##    ##  ,#'     '#,    #''#        ,####,   ,####,        
            ##       ##  ##   ,#'  ##            #'  '#       #'       #'  '#        
            ##       ##  #######   ##           ,######,      #####,   #    #        
            '#,     ,#'  ##    ##  '#,     ,#' ,#      #,     #,   #   #,  ,#        
             '#######'   ##     ##  '#######'  #'      '#     '####' # '####'        



                #########################################################
                #                        -***-                          #
                #          Department of theory and spectroscopy        #
                #                                                       #
                #                      Frank Neese                      #
                #                                                       #
                #     Directorship, Architecture, Infrastructure        #
                #                    SHARK, DRIVERS                     #
                #        Core code/Algorithms in most modules           #
                #                                                       #
                #        Max Planck Institute fuer Kohlenforschung      #
                #                Kaiser Wilhelm Platz 1                 #
                #                 D-45470 Muelheim/Ruhr                 #
                #                      Germany                          #
                #                                                       #
                #                  All rights reserved                  #
                #                        -***-                          #
                #########################################################


                         Program Version 6.0.1  -  RELEASE   -


 With contributions from (in alphabetic order):
[Max-Planck-Institut fuer Kohlenforschung]                               
  Daniel Aravena         : Magnetic Suceptibility                        
  Michael Atanasov       : Ab Initio Ligand Field Theory (pilot matlab implementation)
  Alexander A. Auer      : GIAO ZORA, VPT2 properties, NMR spectrum      
  Ute Becker             : All parallelization in ORCA, NUMFREQ, NUMCALC 
  Giovanni Bistoni       : ED, misc. LED, open-shell LED, HFLD           
  Martin Brehm           : Molecular dynamics                            
  Dmytro Bykov           : pre 5.0 version of the SCF Hessian            
  Marcos Casanova-Páez   : Triplet and SCS-CIS(D). UHF-(DLPNO)-IP/EA/STEOM-CCSD. UHF-CVS-IP/STEOM-CCSD   
  Vijay G. Chilkuri      : MRCI spin determinant printing, contributions to CSF-ICE 
  Pauline Colinet        : FMM embedding                                 
  Dipayan Datta          : RHF DLPNO-CCSD density                        
  Achintya Kumar Dutta   : EOM-CC, STEOM-CC                              
  Nicolas Foglia         : Exact transition moments, OPA infrastructure, MCD improvements    
  Dmitry Ganyushin       : Spin-Orbit,Spin-Spin,Magnetic field MRCI      
  Miquel Garcia-Rates    : C-PCM and meta-GGA Hessian, CCSD/C-PCM, Gaussian charge scheme 
  Tiago L. C. Gouveia    : GS-ROHF, GS-ROCIS                             
  Yang Guo               : DLPNO-NEVPT2, F12-NEVPT2, CIM, IAO-localization        
  Andreas Hansen         : Spin unrestricted coupled pair/coupled cluster methods 
  Ingolf Harden          : AUTO-CI MPn and infrastructure                
  Benjamin Helmich-Paris : MC-RPA, TRAH-(SCF,CASSCF), AVAS, COSX integrals, SCF dyn. polar. 
  Lee Huntington         : MR-EOM, pCC                                   
  Robert Izsak           : Overlap fitted RIJCOSX, COSX-SCS-MP3, EOM     
  Riya Kayal             : Wick's Theorem for AUTO-CI, AUTO-CI UHF-CCSDT 
  Emily Kempfer          : AUTO-CI, RHF CISDT and CCSDT                  
  Christian Kollmar      : KDIIS, OOCD, Brueckner-CCSD(T), CCSD density, CASPT2, CASPT2-K, improved NEVPT2 
  Axel Koslowski         : Symmetry handling                             
  Simone Kossmann        : meta-GGA functionals, TD-DFT gradient, OOMP2, (MP2 Hessian; deprecated post 5.0) 
  Lucas Lang             : DCDCAS                                        
  Marvin Lechner         : AUTO-CI (C++ implementation), FIC-MRCC        
  Spencer Leger          : CASSCF response                               
  Dagmar Lenk            : GEPOL surface, SMD, ORCA-2-JSON               
  Dimitrios Liakos       : Extrapolation schemes; Compound Job, initial MDCI parallelization 
  Dimitrios Manganas     : Further ROCIS development; embedding schemes. LFT, Crystal Embedding 
  Dimitrios Pantazis     : SARC Basis sets                               
  Anastasios Papadopoulos: AUTO-CI, single reference methods and gradients 
  Taras Petrenko         : pre 6.0 DFT Hessian and TD-DFT gradient, (ASA, deprecated), ECA, 1-Electron XAS/XES, NRVS 
  Peter Pinski           : DLPNO-MP2, DLPNO-MP2 Gradient                 
  Christoph Reimann      : Effective Core Potentials                     
  Marius Retegan         : Local ZFS, SOC                                
  Christoph Riplinger    : Optimizer, TS searches, QM/MM, DLPNO-CCSD(T), (RO)-DLPNO pert. Triples 
  Michael Roemelt        : Original ROCIS implementation                 
  Masaaki Saitow         : Open-shell DLPNO-CCSD energy and density      
  Barbara Sandhoefer     : DKH picture change effects                    
  Kantharuban Sivalingam : CASSCF convergence/infrastructure, NEVPT2 and variants, FIC-MRCI 
  Bernardo de Souza      : ESD, SOC TD-DFT                               
  Georgi L. Stoychev     : AutoAux, RI-MP2 NMR, DLPNO-MP2 response, X2C  
  Van Anh Tran           : RI-MP2 g-tensors                              
  Willem Van den Heuvel  : Paramagnetic NMR                              
  Zikuan Wang            : NOTCH, Electric field optimization            
  Frank Wennmohs         : Technical directorship and infrastructure     
  Hang Xu                : AUTO-CI-Response properties                   
                                                                         
[FACCTs GmbH]                                                            
  Markus Bursch, Miquel Garcia-Rates, Christoph Riplinger, Bernardo de Souza, Georgi L. Stoychev 
                                                                 
  APM, Basis sets (HGBS, AHGBS, def-TZVP (Ac-Lr), def2-XVPD (La-Lu)), CI-OPT, improved COSX, DLPNO-Multilevel,           
  DOCKER, DRACO, updates on ESD, GOAT, IRC, LR-CPCM, MBIS, meta-GGA TD-DFT gradient, ML-optimized integration grids, 
  MM, NACMEs, nearIR, NEB, NEB-TS, NL-DFT gradient (VV10), 2- and 3-layer-ONIOM, interface openCOSMO-RS, QMMM,   
  Crystal-QMMM, SF, symmetry and pop. for TD-DFT, r2SCAN hybrids, SOLVATOR                                   
                                                                         
[Other institutions]                                                     
  V. Asgeirsson          : NEB                                           
  Christoph Bannwarth    : sTDA-DFT, sTD-DFT, PBEh-3c, B97-3c, D3        
  Sebastian Ehlert       : rSCAN, r2SCAN, r2SCAN-3c, D4, dhf basis sets  
  Marvin Friede          : D4 for Fr, Ra, Ac-Lr                          
  Lars Goerigk           : TD-DFT with DH, B97 family of functionals     
  Stefan Grimme          : VdW corrections, initial TS optimization, DFT functionals, gCP, sTDA/sTD-DF 
  Waldemar Hujo          : DFT-NL                                        
  H. Jonsson             : NEB                                           
  Holger Kruse           : gCP                                           
  Marcel Mueller         : wB97X-3c, vDZP basis set                      
  Hagen Neugebauer       : wr2SCAN                                       
  Tobias Risthaus        : range-separated hybrid DFT                    
  Lukas Wittmann         : regularized MP2, r2SCAN double-hybrids, wr2SCAN        
                                                                         
We gratefully acknowledge several colleagues who have allowed us to      
interface, adapt or use parts of their codes:                            
  Ed Valeev, F. Pavosevic, A. Kumar             : LibInt (2-el integral package), F12 methods 
  Garnet Chan, S. Sharma, J. Yang, R. Olivares  : DMRG                   
  Ulf Ekstrom                                   : XCFun DFT Library      
  Mihaly Kallay                                 : mrcc  (arbitrary order and MRCC methods)
  Frank Weinhold                                : gennbo (NPA and NBO analysis)           
  Simon Mueller                                 : openCOSMO-RS                            
  Christopher J. Cramer and Donald G. Truhlar   : smd solvation model                     
  S Lehtola, MJT Oliveira, MAL Marques          : LibXC Library                           
  Liviu Ungur et al                             : ANISO software                          


 Your calculation uses the libint2 library for the computation of 2-el integrals
 For citations please refer to: http://libint.valeyev.net

 Your ORCA version has been built with support for libXC version: 6.2.2
 For citations please refer to: https://libxc.gitlab.io

 This ORCA versions uses:
   CBLAS   interface :  Fast vector & matrix operations
   LAPACKE interface :  Fast linear algebra routines
   SCALAPACK package :  Parallel linear algebra routines
   Shared memory     :  Shared parallel matrices
   BLAS/LAPACK       :  OpenBLAS 0.3.27  USE64BITINT DYNAMIC_ARCH NO_AFFINITY SkylakeX SINGLE_THREADED
        Core in use  :  SkylakeX
   Copyright (c) 2011-2014, The OpenBLAS Project


Your calculation utilizes the atom-pairwise dispersion correction
based on EEQ partial charges (D4)


================================================================================

cite the ECPs for C  [vDZP-ECP], O  [vDZP-ECP] as follows:
   B-Ne (ecp-2-mwb), Al-Ar (ecp-10-mwb), Ga-Kr (ecp-28-mwb), Y-Cd (ecp-28-mwb), In-Xe (ecp-46-mwb):
     A. Bergner, M. Dolg, W. Küchle, H. Stoll, and H. Preuß, Mol. Phys. 80, 1431 (1993)., T. Leininger, A. Berning, A. Nicklass, H. Stoll, H.-J. Werner, and H.-J.Flad, Chem. Phys. 217, 19 (1997).
   Na-Mg, K-Ca, Rb-Sr, Cs-Ba (CRENBL):
     L. Fernandez Pacios and P. A. Christiansen, J. Chem. Phys. 82, 2664 (1985)., M. M. Hurley, L. F. Pacios, P. A. Christiansen, R. B. Ross, and W. C. Ermler, J. Chem. Phys. 84, 6840 (1986)., L. A. LaJohn, P. A. Christiansen, R. B. Ross, T. Atashroo, and W. C. Ermler, J. Chem. Phys. 87, 2812 (1987)., R. B. Ross, J. M. Powers, T. Atashroo, W. C. Ermler, L. A. LaJohn, and P. A. Christiansen, J. Chem. Phys. 93, 6654 (1990). 
   Sc-Zn (ecp-10-mdf):
     M. Dolg, U. Wedig, H. Stoll, and H. Preuss, J. Chem. Phys. 86, 866 (1986). 
   Y-Cd (ecp-28-mwb), Hf-Hg (ecp-60-mwb):
     D. Andrae, U. Häußermann, M. Dolg, H. Stoll, and H. Preuß, Theor. Chim. Acta 77, 123 (1990). 
   La (ecp-46-mwb):
     M. Dolg, H. Stoll, and H. Preuss, J. Chem. Phys. 90, 1730 (1989)., M. Dolg, H. Stoll, and H. Preuss, Theor. Chim. Acta 85, 441 (1993).
   Ce-Lu (SBKJC-ecp):
     T. R. Cundari and W. J. Stevens, J. Chem. Phys. 98, 5555 (1993).
   Tl-Rn (ecp-78-mwb):
     W. Küchle, M. Dolg, H. Stoll, and H. Preuss, Mol. Phys. 74, 1245 (1991).

ECP parameters for C  [vDZP-ECP], O  [vDZP-ECP] have been obtained from:
MM, AH, SG, J. Chem. Phys. 158, 014103 (2023), 10.1063/5.0133026

----- Orbital basis set information -----
Your calculation utilizes the basis: vDZP
   Marcel Mueller, Andreas Hansen, Stefan Grimme 
   J. Chem. Phys. 158, 014103 (2023). DOI: 10.1063/5.0133026

----- AuxJ basis set information -----
Your calculation utilizes the auxiliary basis: def2/J
   F. Weigend, Phys. Chem. Chem. Phys. 8, 1057 (2006).

================================================================================
                                        WARNINGS
                       Please study these warnings very carefully!
================================================================================

WARNING: Frozen-Core approximation turned on, but there are no core electrons.
  ===> : Turning off frozen-core approximation


WARNING: Geometry Optimization
  ===> : Switching off AutoStart
         For restart on a previous wavefunction, please use MOREAD

================================================================================
                                       INPUT FILE
================================================================================
NAME = ./output/eudesmol/eudesmol.inp
|  1> ! wB97X-3c OPT FREQ TightSCF
|  2> %pal
|  3>   nprocs 40
|  4> end
|  5> * xyz 0 1
|  6> C      1.362197     3.001435    -0.105392
|  7> C      1.860581     1.558004     0.083530
|  8> C      3.138702     1.355395    -0.755926
|  9> C      3.677001    -0.072456    -0.646266
| 10> C      2.607194    -1.100633    -1.038215
| 11> C      1.298393    -0.966399    -0.206967
| 12> C      0.778888     0.506451    -0.316235
| 13> C     -0.556930     0.700538     0.450850
| 14> C     -1.558081    -0.490468     0.320259
| 15> C     -1.198805    -1.371683    -0.899115
| 16> C      0.227130    -1.951736    -0.795182
| 17> C     -3.057191    -0.006517     0.337094
| 18> C     -3.348282     0.733964     1.659818
| 19> C     -4.047619    -1.193820     0.248619
| 20> O     -3.303833     0.895447    -0.717359
| 21> C      1.593901    -1.373122     1.267061
| 22> H      0.976185     3.153316    -1.136206
| 23> H      2.188160     3.722378     0.075046
| 24> H      0.559870     3.237691     0.624070
| 25> H      2.119596     1.444902     1.157500
| 26> H      3.929107     2.057092    -0.410172
| 27> H      2.928535     1.581905    -1.825241
| 28> H      4.545912    -0.180977    -1.330852
| 29> H      4.050230    -0.262425     0.381605
| 30> H      3.029957    -2.123193    -0.924600
| 31> H      2.381877    -0.959659    -2.119299
| 32> H      0.553770     0.691204    -1.392766
| 33> H     -1.030027     1.625396     0.058878
| 34> H     -0.345387     0.873780     1.528914
| 35> H     -1.434093    -1.139361     1.214451
| 36> H     -1.281610    -0.776862    -1.834052
| 37> H     -1.893929    -2.230684    -0.987861
| 38> H      0.183520    -2.885050    -0.190399
| 39> H      0.509368    -2.286165    -1.817894
| 40> H     -2.735483     1.654650     1.750771
| 41> H     -4.413351     1.048427     1.705101
| 42> H     -3.137359     0.079232     2.532875
| 43> H     -4.032665    -1.664716    -0.755578
| 44> H     -3.805651    -1.964125     1.012124
| 45> H     -5.089839    -0.846734     0.417169
| 46> H     -3.247441     0.398352    -1.573685
| 47> H      2.311969    -0.693604     1.762978
| 48> H      0.677393    -1.383752     1.886353
| 49> H      2.028138    -2.395419     1.304197
| 50> *
| 51> 
| 52>                          ****END OF INPUT****
================================================================================

                       *****************************
                       * Geometry Optimization Run *
                       *****************************

Geometry optimization settings:
Update method            Update   .... BFGS
Choice of coordinates    CoordSys .... (2022) Redundant Internals
Initial Hessian          InHess   .... Almloef's Model
Max. no of cycles        MaxIter  .... 132

Convergence Tolerances:
Energy Change            TolE     ....  5.0000e-06 Eh
Max. Gradient            TolMAXG  ....  3.0000e-04 Eh/bohr
RMS Gradient             TolRMSG  ....  1.0000e-04 Eh/bohr
Max. Displacement        TolMAXD  ....  4.0000e-03 bohr
RMS Displacement         TolRMSD  ....  2.0000e-03 bohr
Strict Convergence                .... False

------------------------------------------------------------------------------
                        ORCA OPTIMIZATION COORDINATE SETUP
------------------------------------------------------------------------------

The optimization will be done in redundant internal coordinates (2022)
Making redundant internal coordinates   ...  (2022 redundants) done
Evaluating the initial hessian          ...  (Almloef) done
Evaluating the coordinates              ...  done
Calculating the B-matrix                .... done
Calculating the G-matrix                .... done
Diagonalizing the G-matrix              .... done
Small eigenvalue found = 1.188e-02
Small eigenvalue found = 2.109e-02
Small eigenvalue found = 2.568e-02
The first mode is                       ....  109
The number of degrees of freedom        ....  126

    -----------------------------------------------------------------
                    Redundant Internal Coordinates


    -----------------------------------------------------------------
         Definition                    Initial Value    Approx d2E/dq
    -----------------------------------------------------------------
      1. B(C   1,C   0)                  1.5387         0.361835   
      2. B(C   2,C   1)                  1.5425         0.356798   
      3. B(C   3,C   2)                  1.5299         0.373732   
      4. B(C   4,C   3)                  1.5347         0.367200   
      5. B(C   5,C   4)                  1.5563         0.339217   
      6. B(C   6,C   5)                  1.5656         0.327775   
      7. B(C   6,C   1)                  1.5607         0.333790   
      8. B(C   7,C   6)                  1.5526         0.343839   
      9. B(C   8,C   7)                  1.5614         0.332921   
     10. B(C   9,C   8)                  1.5468         0.351257   
     11. B(C  10,C   9)                  1.5429         0.356278   
     12. B(C  10,C   5)                  1.5699         0.322677   
     13. B(C  11,C   8)                  1.5754         0.316210   
     14. B(C  12,C  11)                  1.5436         0.355393   
     15. B(C  13,C  11)                  1.5487         0.348776   
     16. B(O  14,C  11)                  1.4093         0.521216   
     17. B(C  15,C   5)                  1.5574         0.337797   
     18. B(H  16,C   0)                  1.1111         0.333183   
     19. B(H  17,C   0)                  1.1111         0.333248   
     20. B(H  18,C   0)                  1.1098         0.334835   
     21. B(H  19,C   1)                  1.1105         0.333932   
     22. B(H  20,C   2)                  1.1121         0.332076   
     23. B(H  21,C   2)                  1.1131         0.330846   
     24. B(H  22,C   3)                  1.1115         0.332748   
     25. B(H  23,C   3)                  1.1099         0.334698   
     26. B(H  24,C   4)                  1.1123         0.331746   
     27. B(H  25,C   4)                  1.1133         0.330588   
     28. B(H  26,C   6)                  1.1152         0.328228   
     29. B(H  27,C   7)                  1.1103         0.334190   
     30. B(H  28,C   7)                  1.1122         0.331900   
     31. B(H  29,C   8)                  1.1118         0.332432   
     32. B(H  30,C   9)                  1.1112         0.333114   
     33. B(H  31,C   9)                  1.1086         0.336338   
     34. B(H  32,C  10)                  1.1130         0.330940   
     35. B(H  33,C  10)                  1.1124         0.331650   
     36. B(H  34,C  12)                  1.1097         0.334947   
     37. B(H  35,C  12)                  1.1114         0.332820   
     38. B(H  36,C  12)                  1.1115         0.332775   
     39. B(H  37,C  13)                  1.1092         0.335546   
     40. B(H  38,C  13)                  1.1112         0.333068   
     41. B(H  39,C  13)                  1.1114         0.332935   
     42. B(H  40,O  14)                  0.9918         0.462705   
     43. B(H  41,C  15)                  1.1060         0.339508   
     44. B(H  42,C  15)                  1.1062         0.339326   
     45. B(H  43,C  15)                  1.1113         0.332973   
     46. A(H  17,C   0,H  18)          107.0107         0.284091   
     47. A(H  16,C   0,H  17)          108.6758         0.283873   
     48. A(C   1,C   0,H  17)          110.3630         0.318562   
     49. A(C   1,C   0,H  18)          110.6808         0.318809   
     50. A(H  16,C   0,H  18)          109.2396         0.284083   
     51. A(C   1,C   0,H  16)          110.7722         0.318552   
     52. A(C   0,C   1,C   2)          108.9525         0.358558   
     53. A(C   6,C   1,H  19)          109.9227         0.314513   
     54. A(C   0,C   1,C   6)          112.0941         0.354522   
     55. A(C   0,C   1,H  19)          106.8473         0.318669   
     56. A(C   2,C   1,C   6)          110.2673         0.353680   
     57. A(C   2,C   1,H  19)          108.6424         0.317941   
     58. A(C   1,C   2,H  21)          109.8549         0.317461   
     59. A(C   3,C   2,H  21)          108.9793         0.319871   
     60. A(C   3,C   2,H  20)          108.4536         0.320065   
     61. A(C   1,C   2,H  20)          109.6851         0.317653   
     62. A(C   1,C   2,C   3)          112.0323         0.360539   
     63. A(H  20,C   2,H  21)          107.7276         0.283408   
     64. A(C   4,C   3,H  23)          110.8704         0.319555   
     65. A(C   2,C   3,C   4)          111.2045         0.362311   
     66. A(H  22,C   3,H  23)          106.9056         0.284007   
     67. A(C   2,C   3,H  23)          110.1476         0.320477   
     68. A(C   2,C   3,H  22)          108.7861         0.320171   
     69. A(C   4,C   3,H  22)          108.7979         0.319250   
     70. A(H  24,C   4,H  25)          107.0090         0.283330   
     71. A(C   5,C   4,H  25)          109.7280         0.314823   
     72. A(C   5,C   4,H  24)          110.1435         0.315002   
     73. A(C   3,C   4,H  24)          108.9574         0.319093   
     74. A(C   3,C   4,H  25)          107.7134         0.318911   
     75. A(C   3,C   4,C   5)          113.0816         0.356382   
     76. A(C   6,C   5,C  10)          109.7481         0.346664   
     77. A(C   6,C   5,C  15)          112.0058         0.349349   
     78. A(C   4,C   5,C  15)          108.8710         0.351378   
     79. A(C   4,C   5,C   6)          108.8400         0.349596   
     80. A(C  10,C   5,C  15)          108.6748         0.348427   
     81. A(C   4,C   5,C  10)          108.6394         0.348673   
     82. A(C   7,C   6,H  26)          106.4120         0.315149   
     83. A(C   5,C   6,H  26)          106.8701         0.312713   
     84. A(C   1,C   6,H  26)          105.9948         0.313635   
     85. A(C   5,C   6,C   7)          111.6304         0.350395   
     86. A(C   1,C   6,C   7)          112.6778         0.351473   
     87. A(C   1,C   6,C   5)          112.7062         0.348646   
     88. A(C   8,C   7,H  28)          108.7747         0.314069   
     89. A(C   6,C   7,H  28)          109.5563         0.315719   
     90. A(C   8,C   7,H  27)          109.4294         0.314419   
     91. A(C   6,C   7,H  27)          107.2361         0.316072   
     92. A(C   6,C   7,C   8)          114.5195         0.351319   
     93. A(H  27,C   7,H  28)          107.0668         0.283827   
     94. A(C  11,C   8,H  29)          106.0710         0.311542   
     95. A(C   9,C   8,H  29)          105.9999         0.316899   
     96. A(C   7,C   8,H  29)          107.8446         0.314151   
     97. A(C   7,C   8,C   9)          110.5838         0.352589   
     98. A(C   9,C   8,C  11)          113.8578         0.349534   
     99. A(C   7,C   8,C  11)          112.0204         0.346392   
    100. A(C   8,C   9,H  30)          109.9385         0.317005   
    101. A(C   8,C   9,C  10)          112.0704         0.356665   
    102. A(H  30,C   9,H  31)          107.4996         0.284271   
    103. A(C  10,C   9,H  31)          107.0727         0.318238   
    104. A(C   8,C   9,H  31)          111.0335         0.317503   
    105. A(C  10,C   9,H  30)          109.0740         0.317739   
    106. A(C   9,C  10,H  33)          106.5934         0.317511   
    107. A(H  32,C  10,H  33)          104.9166         0.283364   
    108. A(C   5,C  10,H  33)          111.1027         0.312444   
    109. A(C   9,C  10,H  32)          108.4000         0.317400   
    110. A(C   5,C  10,H  32)          110.4547         0.312336   
    111. A(C   5,C  10,C   9)          114.8302         0.351573   
    112. A(C  13,C  11,O  14)          109.6323         0.377871   
    113. A(C  12,C  11,O  14)          107.5249         0.379103   
    114. A(C   8,C  11,O  14)          110.8020         0.371533   
    115. A(C  12,C  11,C  13)          107.2250         0.356086   
    116. A(C   8,C  11,C  13)          111.8662         0.349117   
    117. A(C   8,C  11,C  12)          109.6319         0.350226   
    118. A(H  35,C  12,H  36)          108.4521         0.283762   
    119. A(H  34,C  12,H  36)          108.6358         0.284043   
    120. A(C  11,C  12,H  36)          110.7770         0.317557   
    121. A(H  34,C  12,H  35)          106.9236         0.284049   
    122. A(C  11,C  12,H  35)          110.5701         0.317564   
    123. A(C  11,C  12,H  34)          111.3521         0.317894   
    124. A(H  38,C  13,H  39)          108.4507         0.283816   
    125. A(H  37,C  13,H  39)          106.4112         0.284144   
    126. A(C  11,C  13,H  39)          110.5881         0.316612   
    127. A(H  37,C  13,H  38)          108.9536         0.284161   
    128. A(C  11,C  13,H  38)          110.6666         0.316633   
    129. A(C  11,C  13,H  37)          111.6268         0.317015   
    130. A(C  11,O  14,H  40)          108.3782         0.352244   
    131. A(H  42,C  15,H  43)          107.2292         0.284644   
    132. A(H  41,C  15,H  43)          107.2474         0.284668   
    133. A(C   5,C  15,H  43)          110.2430         0.314976   
    134. A(H  41,C  15,H  42)          107.0252         0.285507   
    135. A(C   5,C  15,H  42)          112.0353         0.315945   
    136. A(C   5,C  15,H  41)          112.7750         0.315972   
    137. D(C   6,C   1,C   0,H  16)    -53.1376         0.010496   
    138. D(C   6,C   1,C   0,H  18)     68.1870         0.010496   
    139. D(C   2,C   1,C   0,H  17)    -51.2190         0.010496   
    140. D(C   2,C   1,C   0,H  16)     69.1847         0.010496   
    141. D(C   2,C   1,C   0,H  18)   -169.4907         0.010496   
    142. D(C   6,C   1,C   0,H  17)   -173.5413         0.010496   
    143. D(H  20,C   2,C   1,H  19)    -55.1452         0.010227   
    144. D(C   3,C   2,C   1,C   0)   -178.5951         0.010227   
    145. D(H  20,C   2,C   1,C   6)   -175.6712         0.010227   
    146. D(H  20,C   2,C   1,C   0)     60.9110         0.010227   
    147. D(C   3,C   2,C   1,H  19)     65.3487         0.010227   
    148. D(C   3,C   2,C   1,C   6)    -55.1773         0.010227   
    149. D(C   4,C   3,C   2,H  20)    176.9634         0.011152   
    150. D(C   4,C   3,C   2,H  21)    -66.0220         0.011152   
    151. D(C   4,C   3,C   2,C   1)     55.7567         0.011152   
    152. D(H  22,C   3,C   2,H  21)     53.7830         0.011152   
    153. D(H  22,C   3,C   2,H  20)    -63.2316         0.011152   
    154. D(H  22,C   3,C   2,C   1)    175.5617         0.011152   
    155. D(H  24,C   4,C   3,H  22)     61.3952         0.010789   
    156. D(H  24,C   4,C   3,H  23)    -55.8972         0.010789   
    157. D(H  24,C   4,C   3,C   2)   -178.8068         0.010789   
    158. D(C   5,C   4,C   3,H  23)     66.9358         0.010789   
    159. D(C   5,C   4,C   3,C   2)    -55.9739         0.010789   
    160. D(C   5,C   4,C   3,H  22)   -175.7719         0.010789   
    161. D(C  10,C   5,C   4,H  25)     53.5136         0.009321   
    162. D(C  10,C   5,C   4,H  24)    -64.0380         0.009321   
    163. D(C  10,C   5,C   4,C   3)    173.7902         0.009321   
    164. D(C   6,C   5,C   4,H  24)    176.4987         0.009321   
    165. D(C   6,C   5,C   4,C   3)     54.3269         0.009321   
    166. D(C   6,C   5,C   4,H  25)    -65.9497         0.009321   
    167. D(C   5,C   6,C   1,C   0)    176.7417         0.009052   
    168. D(C   7,C   6,C   5,C  15)    -61.6058         0.008761   
    169. D(C   7,C   6,C   5,C  10)     59.1930         0.008761   
    170. D(C   7,C   6,C   5,C   4)    177.9633         0.008761   
    171. D(C   1,C   6,C   5,C  10)   -172.8166         0.008761   
    172. D(C   1,C   6,C   5,C  15)     66.3846         0.008761   
    173. D(C   1,C   6,C   5,C   4)    -54.0463         0.008761   
    174. D(C   7,C   6,C   1,H  19)     62.8550         0.009052   
    175. D(C   7,C   6,C   1,C   2)   -177.3904         0.009052   
    176. D(C   7,C   6,C   1,C   0)    -55.8194         0.009052   
    177. D(C   5,C   6,C   1,H  19)    -64.5839         0.009052   
    178. D(C   5,C   6,C   1,C   2)     55.1707         0.009052   
    179. D(H  27,C   7,C   6,H  26)    -44.9415         0.009553   
    180. D(H  27,C   7,C   6,C   5)   -161.1887         0.009553   
    181. D(H  27,C   7,C   6,C   1)     70.8057         0.009553   
    182. D(C   8,C   7,C   6,C   5)    -39.5662         0.009553   
    183. D(C   8,C   7,C   6,C   1)   -167.5718         0.009553   
    184. D(C   8,C   7,C   6,H  26)     76.6810         0.009553   
    185. D(C  11,C   8,C   7,H  28)     90.1379         0.009010   
    186. D(C  11,C   8,C   7,H  27)    -26.5163         0.009010   
    187. D(C  11,C   8,C   7,C   6)   -146.9301         0.009010   
    188. D(C   9,C   8,C   7,H  28)   -141.6964         0.009010   
    189. D(C   9,C   8,C   7,H  27)    101.6494         0.009010   
    190. D(C   9,C   8,C   7,C   6)    -18.7643         0.009010   
    191. D(H  30,C   9,C   8,H  29)   -178.8570         0.009935   
    192. D(H  30,C   9,C   8,C  11)     64.9302         0.009935   
    193. D(H  30,C   9,C   8,C   7)    -62.2280         0.009935   
    194. D(C  10,C   9,C   8,H  29)    -57.3775         0.009935   
    195. D(C  10,C   9,C   8,C  11)   -173.5903         0.009935   
    196. D(C  10,C   9,C   8,C   7)     59.2515         0.009935   
    197. D(C   9,C  10,C   5,C  15)    103.6457         0.008519   
    198. D(C   9,C  10,C   5,C   6)    -19.1455         0.008519   
    199. D(C   9,C  10,C   5,C   4)   -138.0394         0.008519   
    200. D(H  32,C  10,C   9,H  31)    -37.0941         0.010199   
    201. D(H  32,C  10,C   9,C   8)     84.8892         0.010199   
    202. D(C   5,C  10,C   9,H  31)   -161.1313         0.010199   
    203. D(C   5,C  10,C   9,H  30)     82.8268         0.010199   
    204. D(C   5,C  10,C   9,C   8)    -39.1481         0.010199   
    205. D(H  32,C  10,C   5,C  15)    -19.2962         0.008519   
    206. D(H  32,C  10,C   9,H  30)   -153.1359         0.010199   
    207. D(H  32,C  10,C   5,C   6)   -142.0874         0.008519   
    208. D(H  32,C  10,C   5,C   4)     99.0187         0.008519   
    209. D(C  13,C  11,C   8,H  29)    -60.9305         0.008219   
    210. D(C  13,C  11,C   8,C   9)     55.2408         0.008219   
    211. D(C  13,C  11,C   8,C   7)   -178.3503         0.008219   
    212. D(C  12,C  11,C   8,H  29)     57.8808         0.008219   
    213. D(C  12,C  11,C   8,C   9)    174.0520         0.008219   
    214. D(C  12,C  11,C   8,C   7)    -59.5391         0.008219   
    215. D(H  35,C  12,C  11,O  14)     61.6393         0.010152   
    216. D(H  35,C  12,C  11,C  13)    -56.1862         0.010152   
    217. D(H  35,C  12,C  11,C   8)   -177.8266         0.010152   
    218. D(H  34,C  12,C  11,O  14)    -57.0815         0.010152   
    219. D(H  34,C  12,C  11,C  13)   -174.9071         0.010152   
    220. D(H  34,C  12,C  11,C   8)     63.4526         0.010152   
    221. D(H  38,C  13,C  11,O  14)    174.5162         0.009806   
    222. D(H  38,C  13,C  11,C  12)    -69.0405         0.009806   
    223. D(H  38,C  13,C  11,C   8)     51.1873         0.009806   
    224. D(H  37,C  13,C  11,O  14)     52.9840         0.009806   
    225. D(H  37,C  13,C  11,C  12)    169.4273         0.009806   
    226. D(H  37,C  13,C  11,C   8)    -70.3450         0.009806   
    227. D(H  40,O  14,C  11,C  13)    -55.7416         0.021542   
    228. D(H  40,O  14,C  11,C  12)   -171.9954         0.021542   
    229. D(H  40,O  14,C  11,C   8)     68.2119         0.021542   
    230. D(H  42,C  15,C   5,C  10)    -56.7271         0.009250   
    231. D(H  42,C  15,C   5,C   6)     64.6916         0.009250   
    232. D(H  42,C  15,C   5,C   4)   -174.8956         0.009250   
    233. D(H  41,C  15,C   5,C  10)   -177.5580         0.009250   
    234. D(H  41,C  15,C   5,C   6)    -56.1394         0.009250   
    235. D(H  41,C  15,C   5,C   4)     64.2735         0.009250   
    -----------------------------------------------------------------

Number of atoms                         .... 44
Number of degrees of freedom            .... 235


         *************************************************************
         *                GEOMETRY OPTIMIZATION CYCLE   1            *
         *************************************************************
---------------------------------
CARTESIAN COORDINATES (ANGSTROEM)
---------------------------------
  C      1.362197    3.001435   -0.105392
  C      1.860581    1.558004    0.083530
  C      3.138702    1.355395   -0.755926
  C      3.677001   -0.072456   -0.646266
  C      2.607194   -1.100633   -1.038215
  C      1.298393   -0.966399   -0.206967
  C      0.778888    0.506451   -0.316235
  C     -0.556930    0.700538    0.450850
  C     -1.558081   -0.490468    0.320259
  C     -1.198805   -1.371683   -0.899115
  C      0.227130   -1.951736   -0.795182
  C     -3.057191   -0.006517    0.337094
  C     -3.348282    0.733964    1.659818
  C     -4.047619   -1.193820    0.248619
  O     -3.303833    0.895447   -0.717359
  C      1.593901   -1.373122    1.267061
  H      0.976185    3.153316   -1.136206
  H      2.188160    3.722378    0.075046
  H      0.559870    3.237691    0.624070
  H      2.119596    1.444902    1.157500
  H      3.929107    2.057092   -0.410172
  H      2.928535    1.581905   -1.825241
  H      4.545912   -0.180977   -1.330852
  H      4.050230   -0.262425    0.381605
  H      3.029957   -2.123193   -0.924600
  H      2.381877   -0.959659   -2.119299
  H      0.553770    0.691204   -1.392766
  H     -1.030027    1.625396    0.058878
  H     -0.345387    0.873780    1.528914
  H     -1.434093   -1.139361    1.214451
  H     -1.281610   -0.776862   -1.834052
  H     -1.893929   -2.230684   -0.987861
  H      0.183520   -2.885050   -0.190399
  H      0.509368   -2.286165   -1.817894
  H     -2.735483    1.654650    1.750771
  H     -4.413351    1.048427    1.705101
  H     -3.137359    0.079232    2.532875
  H     -4.032665   -1.664716   -0.755578
  H     -3.805651   -1.964125    1.012124
  H     -5.089839   -0.846734    0.417169
  H     -3.247441    0.398352   -1.573685
  H      2.311969   -0.693604    1.762978
  H      0.677393   -1.383752    1.886353
  H      2.028138   -2.395419    1.304197

----------------------------
CARTESIAN COORDINATES (A.U.)
----------------------------
  NO LB      ZA    FRAG     MASS         X           Y           Z
   0 C     4.0000*   0    12.011    2.574179    5.671890   -0.199162
   1 C     4.0000*   0    12.011    3.515989    2.944201    0.157849
   2 C     4.0000*   0    12.011    5.931287    2.561325   -1.428493
   3 C     4.0000*   0    12.011    6.948525   -0.136922   -1.221266
   4 C     4.0000*   0    12.011    4.926883   -2.079895   -1.961942
   5 C     4.0000*   0    12.011    2.453607   -1.826229   -0.391111
   6 C     4.0000*   0    12.011    1.471885    0.957054   -0.597598
   7 C     4.0000*   0    12.011   -1.052445    1.323825    0.851983
   8 C     4.0000*   0    12.011   -2.944346   -0.926850    0.605202
   9 C     4.0000*   0    12.011   -2.265413   -2.592105   -1.699081
  10 C     4.0000*   0    12.011    0.429213   -3.688247   -1.502676
  11 C     4.0000*   0    12.011   -5.777254   -0.012315    0.637015
  12 C     4.0000*   0    12.011   -6.327336    1.386991    3.136601
  13 C     4.0000*   0    12.011   -7.648891   -2.255993    0.469822
  14 O     6.0000*   0    15.999   -6.243340    1.692150   -1.355612
  15 C     4.0000*   0    12.011    3.012036   -2.594825    2.394398
  16 H     1.0000    0     1.008    1.844722    5.958904   -2.147118
  17 H     1.0000    0     1.008    4.135023    7.034275    0.141816
  18 H     1.0000    0     1.008    1.058001    6.118349    1.179321
  19 H     1.0000    0     1.008    4.005456    2.730469    2.187358
  20 H     1.0000    0     1.008    7.424936    3.887341   -0.775113
  21 H     1.0000    0     1.008    5.534129    2.989367   -3.449206
  22 H     1.0000    0     1.008    8.590529   -0.341997   -2.514946
  23 H     1.0000    0     1.008    7.653825   -0.495911    0.721129
  24 H     1.0000    0     1.008    5.725789   -4.012253   -1.747241
  25 H     1.0000    0     1.008    4.501095   -1.813493   -4.004895
  26 H     1.0000    0     1.008    1.046474    1.306186   -2.631946
  27 H     1.0000    0     1.008   -1.946469    3.071553    0.111263
  28 H     1.0000    0     1.008   -0.652687    1.651205    2.889229
  29 H     1.0000    0     1.008   -2.710043   -2.153080    2.294980
  30 H     1.0000    0     1.008   -2.421892   -1.468056   -3.465856
  31 H     1.0000    0     1.008   -3.579007   -4.215382   -1.866787
  32 H     1.0000    0     1.008    0.346803   -5.451954   -0.359802
  33 H     1.0000    0     1.008    0.962566   -4.320226   -3.435322
  34 H     1.0000    0     1.008   -5.169314    3.126835    3.308478
  35 H     1.0000    0     1.008   -8.340025    1.981240    3.222174
  36 H     1.0000    0     1.008   -5.928749    0.149727    4.786440
  37 H     1.0000    0     1.008   -7.620632   -3.145857   -1.427835
  38 H     1.0000    0     1.008   -7.191638   -3.711658    1.912637
  39 H     1.0000    0     1.008   -9.618402   -1.600095    0.788335
  40 H     1.0000    0     1.008   -6.136774    0.752776   -2.973834
  41 H     1.0000    0     1.008    4.368988   -1.310722    3.331546
  42 H     1.0000    0     1.008    1.280087   -2.614912    3.564691
  43 H     1.0000    0     1.008    3.832625   -4.526686    2.464575
* core charge reduced due to ECP

--------------------------------
INTERNAL COORDINATES (ANGSTROEM)
--------------------------------
 C      0   0   0     0.000000000000     0.00000000     0.00000000
 C      1   0   0     1.538691387284     0.00000000     0.00000000
 C      2   1   0     1.542507722333   108.95246464     0.00000000
 C      3   2   1     1.529885488264   112.03228566   181.40492373
 C      4   3   2     1.534685302979   111.20446744    55.75671966
 C      5   4   3     1.556262208582   113.08159005   304.02612490
 C      2   1   3     1.560652271739   112.09409225   237.67772053
 C      7   2   1     1.552578142935   112.67782474   304.18062539
 C      8   7   2     1.561362426254   114.51945728   192.42819213
 C      9   8   7     1.546768267155   110.58381421   341.23566334
 C     10   9   8     1.542904460919   112.07039444    59.25154399
 C      9   8   7     1.575380201642   112.02044674   213.06993276
 C     12   9   8     1.543581828676   109.63189084   300.46093517
 C     12   9   8     1.548697472917   111.86618168   181.64967397
 O     12   9   8     1.409341144886   110.80200361    58.98415128
 C      6   5   4     1.557403968653   108.87095765   291.98098549
 H      1   2   3     1.111148327138   110.77218133    69.18467158
 H      1   2   3     1.111094756743   110.36303698   308.78101603
 H      1   2   3     1.109801929134   110.68084867   190.50930320
 H      2   1   3     1.110536984314   106.84730728   117.20193046
 H      3   2   1     1.112054212865   109.68512588    60.91096639
 H      3   2   1     1.113064022064   109.85493573   302.68055325
 H      4   3   2     1.111503992237   108.78610722   175.56174387
 H      4   3   2     1.109913014629   110.14760513   292.43258551
 H      5   4   3     1.112324537172   108.95739222   181.19321341
 H      5   4   3     1.113276261411   107.71337908    65.44584617
 H      7   2   1     1.115226783616   105.99482099    60.17775449
 H      8   7   2     1.110326591754   107.23607246    70.80567889
 H      8   7   2     1.112198372373   109.55627655   314.93746698
 H      9   8   7     1.111761882085   107.84458956    96.71674650
 H     10   9   8     1.111204699430   109.93852606   297.77200421
 H     10   9   8     1.108582854771   111.03353272   178.94284023
 H     11  10   9     1.112986671881   108.40002859    84.88917929
 H     11  10   9     1.112403200116   106.59338205   197.35903112
 H     13  12   9     1.109710670944   111.35214823    63.45259227
 H     13  12   9     1.111444781903   110.57007457   182.17344342
 H     13  12   9     1.111481456886   110.77697146   302.43589261
 H     14  12   9     1.109224179209   111.62683319   289.65504174
 H     14  12   9     1.111241733861   110.66655893    51.18730346
 H     14  12   9     1.111350674763   110.58806262   171.38757076
 H     15  12   9     0.991754866368   108.37822040    68.21191656
 H     16   6   5     1.106028948915   112.77496362    64.27349129
 H     16   6   5     1.106174711439   112.03530700   185.10440779
 H     16   6   5     1.111319940824   110.24298834   304.43404378

---------------------------
INTERNAL COORDINATES (A.U.)
---------------------------
 C      0   0   0     0.000000000000     0.00000000     0.00000000
 C      1   0   0     2.907705326590     0.00000000     0.00000000
 C      2   1   0     2.914917154669   108.95246464     0.00000000
 C      3   2   1     2.891064589080   112.03228566   181.40492373
 C      4   3   2     2.900134924384   111.20446744    55.75671966
 C      5   4   3     2.940909366792   113.08159005   304.02612490
 C      2   1   3     2.949205383868   112.09409225   237.67772053
 C      7   2   1     2.933947491658   112.67782474   304.18062539
 C      8   7   2     2.950547381415   114.51945728   192.42819213
 C      9   8   7     2.922968417562   110.58381421   341.23566334
 C     10   9   8     2.915666881942   112.07039444    59.25154399
 C      9   8   7     2.977037137905   112.02044674   213.06993276
 C     12   9   8     2.916946921495   109.63189084   300.46093517
 C     12   9   8     2.926614088108   111.86618168   181.64967397
 O     12   9   8     2.663268793102   110.80200361    58.98415128
 C      6   5   4     2.943066980637   108.87095765   291.98098549
 H      1   2   3     2.099766032455   110.77218133    69.18467158
 H      1   2   3     2.099664799080   110.36303698   308.78101603
 H      1   2   3     2.097221708960   110.68084867   190.50930320
 H      2   1   3     2.098610761944   106.84730728   117.20193046
 H      3   2   1     2.101477908388   109.68512588    60.91096639
 H      3   2   1     2.103386171222   109.85493573   302.68055325
 H      4   3   2     2.100438142087   108.78610722   175.56174387
 H      4   3   2     2.097431630124   110.14760513   292.43258551
 H      5   4   3     2.101988747295   108.95739222   181.19321341
 H      5   4   3     2.103787245462   107.71337908    65.44584617
 H      7   2   1     2.107473198248   105.99482099    60.17775449
 H      8   7   2     2.098213177626   107.23607246    70.80567889
 H      8   7   2     2.101750330378   109.55627655   314.93746698
 H      9   8   7     2.100925483273   107.84458956    96.71674650
 H     10   9   8     2.099872560649   109.93852606   297.77200421
 H     10   9   8     2.094917992278   111.03353272   178.94284023
 H     11  10   9     2.103240000560   108.40002859    84.88917929
 H     11  10   9     2.102137398717   106.59338205   197.35903112
 H     13  12   9     2.097049255973   111.35214823    63.45259227
 H     13  12   9     2.100326250772   110.57007457   182.17344342
 H     13  12   9     2.100395556447   110.77697146   302.43589261
 H     14  12   9     2.096129919828   111.62683319   289.65504174
 H     14  12   9     2.099942545581   110.66655893    51.18730346
 H     14  12   9     2.100148414051   110.58806262   171.38757076
 H     15  12   9     1.874145089420   108.37822040    68.21191656
 H     16   6   5     2.090091809637   112.77496362    64.27349129
 H     16   6   5     2.090367260890   112.03530700   185.10440779
 H     16   6   5     2.100090335324   110.24298834   304.43404378

---------------------
BASIS SET INFORMATION
---------------------
There are 3 groups of distinct atoms

 Group   1 Type C   : 6s6p2d contracted to 2s2p1d pattern {42/42/2}
 Group   2 Type O   : 6s6p2d contracted to 2s2p1d pattern {42/42/2}
 Group   3 Type H   : 8s2p contracted to 2s1p pattern {53/2}

Atom   0C    basis set group =>   1
Atom   1C    basis set group =>   1
Atom   2C    basis set group =>   1
Atom   3C    basis set group =>   1
Atom   4C    basis set group =>   1
Atom   5C    basis set group =>   1
Atom   6C    basis set group =>   1
Atom   7C    basis set group =>   1
Atom   8C    basis set group =>   1
Atom   9C    basis set group =>   1
Atom  10C    basis set group =>   1
Atom  11C    basis set group =>   1
Atom  12C    basis set group =>   1
Atom  13C    basis set group =>   1
Atom  14O    basis set group =>   2
Atom  15C    basis set group =>   1
Atom  16H    basis set group =>   3
Atom  17H    basis set group =>   3
Atom  18H    basis set group =>   3
Atom  19H    basis set group =>   3
Atom  20H    basis set group =>   3
Atom  21H    basis set group =>   3
Atom  22H    basis set group =>   3
Atom  23H    basis set group =>   3
Atom  24H    basis set group =>   3
Atom  25H    basis set group =>   3
Atom  26H    basis set group =>   3
Atom  27H    basis set group =>   3
Atom  28H    basis set group =>   3
Atom  29H    basis set group =>   3
Atom  30H    basis set group =>   3
Atom  31H    basis set group =>   3
Atom  32H    basis set group =>   3
Atom  33H    basis set group =>   3
Atom  34H    basis set group =>   3
Atom  35H    basis set group =>   3
Atom  36H    basis set group =>   3
Atom  37H    basis set group =>   3
Atom  38H    basis set group =>   3
Atom  39H    basis set group =>   3
Atom  40H    basis set group =>   3
Atom  41H    basis set group =>   3
Atom  42H    basis set group =>   3
Atom  43H    basis set group =>   3
---------------------------------
AUXILIARY/J BASIS SET INFORMATION
---------------------------------
There are 3 groups of distinct atoms

 Group   1 Type C   : 12s5p4d2f1g contracted to 6s4p3d1f1g pattern {711111/2111/211/2/1}
 Group   2 Type O   : 12s5p4d2f1g contracted to 6s4p3d1f1g pattern {711111/2111/211/2/1}
 Group   3 Type H   : 5s2p1d contracted to 3s1p1d pattern {311/2/1}

Atom   0C    basis set group =>   1
Atom   1C    basis set group =>   1
Atom   2C    basis set group =>   1
Atom   3C    basis set group =>   1
Atom   4C    basis set group =>   1
Atom   5C    basis set group =>   1
Atom   6C    basis set group =>   1
Atom   7C    basis set group =>   1
Atom   8C    basis set group =>   1
Atom   9C    basis set group =>   1
Atom  10C    basis set group =>   1
Atom  11C    basis set group =>   1
Atom  12C    basis set group =>   1
Atom  13C    basis set group =>   1
Atom  14O    basis set group =>   2
Atom  15C    basis set group =>   1
Atom  16H    basis set group =>   3
Atom  17H    basis set group =>   3
Atom  18H    basis set group =>   3
Atom  19H    basis set group =>   3
Atom  20H    basis set group =>   3
Atom  21H    basis set group =>   3
Atom  22H    basis set group =>   3
Atom  23H    basis set group =>   3
Atom  24H    basis set group =>   3
Atom  25H    basis set group =>   3
Atom  26H    basis set group =>   3
Atom  27H    basis set group =>   3
Atom  28H    basis set group =>   3
Atom  29H    basis set group =>   3
Atom  30H    basis set group =>   3
Atom  31H    basis set group =>   3
Atom  32H    basis set group =>   3
Atom  33H    basis set group =>   3
Atom  34H    basis set group =>   3
Atom  35H    basis set group =>   3
Atom  36H    basis set group =>   3
Atom  37H    basis set group =>   3
Atom  38H    basis set group =>   3
Atom  39H    basis set group =>   3
Atom  40H    basis set group =>   3
Atom  41H    basis set group =>   3
Atom  42H    basis set group =>   3
Atom  43H    basis set group =>   3
-------------------------
ECP PARAMETER INFORMATION
-------------------------

 Group 1, Type C  ECP vDZP-ECP (replacing 2 core electrons, lmax=3)
 Group 2, Type O  ECP vDZP-ECP (replacing 2 core electrons, lmax=3)

Atom   0C    ECP group =>   1
Atom   1C    ECP group =>   1
Atom   2C    ECP group =>   1
Atom   3C    ECP group =>   1
Atom   4C    ECP group =>   1
Atom   5C    ECP group =>   1
Atom   6C    ECP group =>   1
Atom   7C    ECP group =>   1
Atom   8C    ECP group =>   1
Atom   9C    ECP group =>   1
Atom  10C    ECP group =>   1
Atom  11C    ECP group =>   1
Atom  12C    ECP group =>   1
Atom  13C    ECP group =>   1
Atom  14O    ECP group =>   2
Atom  15C    ECP group =>   1



           ************************************************************
           *        Program running with 40 parallel MPI-processes    *
           *              working on a common directory               *
           ************************************************************
------------------------------------------------------------------------------
                             ORCA STARTUP CALCULATIONS
                           -- RI-GTO INTEGRALS CHOSEN --
------------------------------------------------------------------------------
------------------------------------------------------------------------------
                   ___                                                        
                  /   \      - P O W E R E D   B Y -                         
                 /     \                                                     
                 |  |  |   _    _      __       _____    __    __             
                 |  |  |  | |  | |    /  \     |  _  \  |  |  /  |          
                  \  \/   | |  | |   /    \    | | | |  |  | /  /          
                 / \  \   | |__| |  /  /\  \   | |_| |  |  |/  /          
                |  |  |   |  __  | /  /__\  \  |    /   |      \           
                |  |  |   | |  | | |   __   |  |    \   |  |\   \          
                \     /   | |  | | |  |  |  |  | |\  \  |  | \   \       
                 \___/    |_|  |_| |__|  |__|  |_| \__\ |__|  \__/        
                                                                              
                      - O R C A' S   B I G   F R I E N D -                    
                                      &                                       
                       - I N T E G R A L  F E E D E R -                       
                                                                              
 v1 FN, 2020, v2 2021, v3 2022-2024                                           
------------------------------------------------------------------------------


----------------------
SHARK INTEGRAL PACKAGE
----------------------

Number of atoms                             ...     44
Number of basis functions                   ...    348
Number of shells                            ...    164
Maximum angular momentum                    ...      2
Integral batch strategy                     ... SHARK/LIBINT Hybrid
RI-J (if used) integral strategy            ... SPLIT-RIJ (Revised 2003 algorithm where possible)
Printlevel                                  ...      1
Contraction scheme used                     ... SEGMENTED contraction
Prescreening option                         ... SCHWARTZ
   Thresh                                   ... 2.500e-11
   Tcut                                     ... 2.500e-12
   Tpresel                                  ... 2.500e-12 
Coulomb Range Separation                    ... NOT USED
Exchange Range Separation                   ... Long Range
   Mu parameter                             ... 3.000e-01
   Scaling (regular/separated)              ... 1.670e-01 8.330e-01
Multipole approximations                    ... NOT USED
Finite Nucleus Model                        ... NOT USED
CABS basis                                  ... NOT available
Auxiliary Coulomb fitting basis             ... AVAILABLE
   # of basis functions in Aux-J            ...   1092
   # of shells in Aux-J                     ...    380
   Maximum angular momentum in Aux-J        ...      4
Auxiliary J/K fitting basis                 ... NOT available
Auxiliary Correlation fitting basis         ... NOT available
Auxiliary 'external' fitting basis          ... NOT available

Checking pre-screening integrals            ... done (  0.0 sec) Dimension = 164
Check shell pair data                       ... done (  0.0 sec)
Shell pair information
Shell pair cut-off parameter TPreSel        ...   2.5e-12
Total number of shell pairs                 ...     13530
Shell pairs after pre-screening             ...     13317
Total number of primitive shell pairs       ...    127892
Primitive shell pairs kept                  ...     95355
          la=0 lb=0:   3886 shell pairs
          la=1 lb=0:   5194 shell pairs
          la=1 lb=1:   1759 shell pairs
          la=2 lb=0:   1399 shell pairs
          la=2 lb=1:    943 shell pairs
          la=2 lb=2:    136 shell pairs

Calculating one electron integrals          ... done (  0.0 sec)
Calculating ECP integrals                   ... done (  0.2 sec)
Calculating RI/J V-Matrix + Cholesky decomp.... done (  0.1 sec)
Calculating Nuclear repulsion               ... done (  0.0 sec) ENN=    692.179394506980 Eh

Diagonalization of the overlap matrix:
Smallest eigenvalue                        ... 1.106e-03
Time for diagonalization                   ...    0.018 sec
Threshold for overlap eigenvalues          ... 1.000e-07
Number of eigenvalues below threshold      ... 0
Time for construction of square roots      ...    0.010 sec
Total time needed                          ...    0.031 sec

-------------------
DFT GRID GENERATION
-------------------

General Integration Accuracy     IntAcc      ... 4.388
Radial Grid Type                 RadialGrid  ... OptM3 with GC (2021)
Angular Grid (max. ang.)         AngularGrid ... 4 (Lebedev-302)
Angular grid pruning method      GridPruning ... 4 (adaptive)
Weight generation scheme         WeightScheme... mBecke (2022)
Basis function cutoff            BFCut       ... 1.0000e-11
Integration weight cutoff        WCut        ... 1.0000e-14
Partially contracted basis set               ... off
Rotationally invariant grid construction     ... off
Angular grids for H and He will be reduced by one unit

Total number of grid points                  ...   182789
Total number of batches                      ...     2877
Average number of points per batch           ...       63
Average number of grid points per atom       ...     4154

--------------------
COSX GRID GENERATION
--------------------

GRIDX 1
-------
General Integration Accuracy     IntAcc      ... 3.816
Radial Grid Type                 RadialGrid  ... OptM3 with GC (2021)
Angular Grid (max. ang.)         AngularGrid ... 1 (Lebedev-50)
Angular grid pruning method      GridPruning ... 4 (adaptive)
Weight generation scheme         WeightScheme... mBecke (2022)
Basis function cutoff            BFCut       ... 1.0000e-11
Integration weight cutoff        WCut        ... 1.0000e-14
Partially contracted basis set               ... on
Rotationally invariant grid construction     ... off
Angular grids for H and He will be reduced by one unit

Total number of grid points                  ...    23314
Total number of batches                      ...      209
Average number of points per batch           ...      111
Average number of grid points per atom       ...      530
UseSFitting                                  ... on

GRIDX 2
-------
General Integration Accuracy     IntAcc      ... 4.020
Radial Grid Type                 RadialGrid  ... OptM3 with GC (2021)
Angular Grid (max. ang.)         AngularGrid ... 2 (Lebedev-110)
Angular grid pruning method      GridPruning ... 4 (adaptive)
Weight generation scheme         WeightScheme... mBecke (2022)
Basis function cutoff            BFCut       ... 1.0000e-11
Integration weight cutoff        WCut        ... 1.0000e-14
Partially contracted basis set               ... on
Rotationally invariant grid construction     ... off
Angular grids for H and He will be reduced by one unit

Total number of grid points                  ...    47800
Total number of batches                      ...      398
Average number of points per batch           ...      120
Average number of grid points per atom       ...     1086
UseSFitting                                  ... on

GRIDX 3
-------
General Integration Accuracy     IntAcc      ... 4.338
Radial Grid Type                 RadialGrid  ... OptM3 with GC (2021)
Angular Grid (max. ang.)         AngularGrid ... 3 (Lebedev-194)
Angular grid pruning method      GridPruning ... 4 (adaptive)
Weight generation scheme         WeightScheme... mBecke (2022)
Basis function cutoff            BFCut       ... 1.0000e-11
Integration weight cutoff        WCut        ... 1.0000e-14
Partially contracted basis set               ... on
Rotationally invariant grid construction     ... off
Angular grids for H and He will be reduced by one unit

Total number of grid points                  ...   103513
Total number of batches                      ...      832
Average number of points per batch           ...      124
Average number of grid points per atom       ...     2353
UseSFitting                                  ... on
Initializing property integral containers    ... done (  0.0 sec)

SHARK setup successfully completed in   5.7 seconds

Maximum memory used throughout the entire STARTUP-calculation: 61.8 MB


           ************************************************************
           *        Program running with 40 parallel MPI-processes    *
           *              working on a common directory               *
           ************************************************************
-------------------------------------------------------------------------------
                                 ORCA GUESS
                   Start orbitals & Density for SCF / CASSCF
-------------------------------------------------------------------------------

------------
SCF SETTINGS
------------
Hamiltonian:
 Density Functional     Method          .... DFT(GTOs)
 Exchange Functional    Exchange        .... WB97X-V
 Correlation Functional Correlation     .... WB97X-V
 Gradients option       PostSCFGGA      .... off
 Hybrid DFT is turned on
   Fraction HF Exchange ScalHFX         ....  0.167000
   Scaling of DF-GGA-X  ScalDFX         ....  0.000000
   Scaling of DF-GGA-C  ScalDFC         ....  1.000000
   Scaling of DF-LDA-C  ScalLDAC        ....  1.000000
   Perturbative correction              ....  0.000000
 Long-range corrected/Screened/Range-Separated Hybrid DFT is turned on
   Amount of maximum screened exact exchange              ....  0.833000
   Range separation parameter mu (erf(mu*r12)/r12)        ....  0.300000
   NL short-range parameter             ....  6.000000
   NL long-range parameter              ....  0.010000
 RI-approximation to the Coulomb term is turned on
   Number of AuxJ basis functions       .... 1092
   RIJ-COSX (HFX calculated with COS-X)).... on


General Settings:
 Integral files         IntName         .... ./output/eudesmol/eudesmol
 Hartree-Fock type      HFTyp           .... RHF
 Total Charge           Charge          ....    0
 Multiplicity           Mult            ....    1
 Number of Electrons    NEL             ....   94
 Basis Dimension        Dim             ....  348
 Nuclear Repulsion      ENuc            ....    692.1793945070 Eh

Convergence Acceleration:
 AO-DIIS                CNVDIIS         .... on
   Start iteration      DIISMaxIt       ....    12
   Startup error        DIISStart       ....  0.200000
   # of expansion vecs  DIISMaxEq       ....     5
   Bias factor          DIISBfac        ....   1.050
   Max. coefficient     DIISMaxC        ....  10.000
 MO-DIIS                CNVKDIIS        .... off
 Trust-Rad. Augm. Hess. CNVTRAH         .... auto
   Auto Start mean grad. ratio tolernc. ....  1.125000
   Auto Start start iteration           ....    50
   Auto Start num. interpolation iter.  ....    10
   Max. Number of Micro iterations      ....    24
   Max. Number of Macro iterations      .... Maxiter - #DIIS iter
   Number of Davidson start vectors     ....     2
   Converg. threshold    (grad. norm)   ....   1.000e-05
   Grad. Scal. Fac. for Micro threshold ....   0.100
   Minimum threshold for Micro iter.    ....   1.000e-02
   NR start threshold (gradient norm)   ....   1.000e-04
   Initial trust radius                 ....   0.400
   Minimum AH scaling param. (alpha)    ....   1.000
   Maximum AH scaling param. (alpha)    .... 1000.000
   Quad. conv. algorithm                .... NR
   White noise on init. David. guess    .... on
   Maximum white noise                  ....   0.010
   Pseudo random numbers                .... off
   Inactive MOs                         .... canonical
   Orbital update algorithm             .... Taylor
   Preconditioner                       .... Diag
   Full preconditioner red. dimension   ....   250
 SOSCF                  CNVSOSCF        .... on
   Start iteration      SOSCFMaxIt      ....   150
   Startup grad/error   SOSCFStart      ....  0.003300
   Hessian update       SOSCFHessUp     .... L-BFGS
 Level Shifting         CNVShift        .... on
   Level shift para.    LevelShift      ....    0.2500
   Turn off err/grad.   ShiftErr        ....    0.0010
 Zerner damping         CNVZerner       .... off
 Static damping         CNVDamp         .... on
   Fraction old density DampFac         ....    0.7000
   Max. Damping (<1)    DampMax         ....    0.9800
   Min. Damping (>=0)   DampMin         ....    0.0000
   Turn off err/grad.   DampErr         ....    0.1000

SCF Procedure:
 Maximum # iterations   MaxIter         ....   125
 SCF integral mode      SCFMode         .... Direct
   Integral package                     .... SHARK and LIBINT hybrid scheme
 Reset frequency        DirectResetFreq ....    20
 Integral Threshold     Thresh          ....  2.500e-11 Eh
 Primitive CutOff       TCut            ....  2.500e-12 Eh

Convergence Tolerance:
 Convergence Check Mode ConvCheckMode   .... Total+1el-Energy
 Convergence forced     ConvForced      .... 0
 Energy Change          TolE            ....  1.000e-08 Eh
 1-El. energy change                    ....  1.000e-05 Eh
 Orbital Gradient       TolG            ....  1.000e-05
 Orbital Rotation angle TolX            ....  1.000e-05
 DIIS Error             TolErr          ....  5.000e-07

------------------------------
INITIAL GUESS: MODEL POTENTIAL
------------------------------
Loading Hartree-Fock densities                     ... done
Atomic calculation to generate a density for atom 0 (C  with ECP)
  Multiplicity assumed   :    1
  Atomic configuration   : 1s2 2s2 2p2 
  Number of open shells  : 1
  Command: /home/aspe232/Project/Software/ORCA/6_0_1/build/orca ./output/eudesmol/eudesmol_atom6.inp "" > ./output/eudesmol/eudesmol_atom6.out
Returned from the atomic calculation with res=0
Atomic calculation to generate a density for atom 14 (O  with ECP)
  Multiplicity assumed   :    3
  Atomic configuration   : 1s2 2s2 2p4 
  Number of open shells  : 1
  Command: /home/aspe232/Project/Software/ORCA/6_0_1/build/orca ./output/eudesmol/eudesmol_atom8.inp "" > ./output/eudesmol/eudesmol_atom8.out
Returned from the atomic calculation with res=0
Calculating cut-offs                               ... done
Initializing the effective Hamiltonian             ... done
Setting up the integral package (SHARK)            ... done
Starting the Coulomb interaction                   ... done (   0.1 sec)
Making the grid                                    ... done (   1.0 sec)
Mapping shells                                     ... done
Starting the XC term evaluation                    ... done (   0.1 sec)
  promolecular density results
     # of electrons  =    125.985819091
     EX              =    -61.630059179
     EC              =     -5.067165334
     EX+EC           =    -66.697224514
Transforming the Hamiltonian                       ... done (   0.0 sec)
Diagonalizing the Hamiltonian                      ... done (   0.0 sec)
Back transforming the eigenvectors                 ... done (   0.0 sec)
Now organizing SCF variables                       ... done
                      ------------------
                      INITIAL GUESS DONE (   2.4 sec)
                      ------------------
             **** ENERGY FILE WAS UPDATED (./output/eudesmol/eudesmol.en.tmp) ****
Finished Guess after   3.6 sec
Maximum memory used throughout the entire GUESS-calculation: 41.2 MB


           ************************************************************
           *        Program running with 40 parallel MPI-processes    *
           *              working on a common directory               *
           ************************************************************

-------------------------------------------------------------------------------------------
                                      ORCA LEAN-SCF
                              memory conserving SCF solver
-------------------------------------------------------------------------------------------

----------------------------------------D-I-I-S--------------------------------------------
Iteration    Energy (Eh)           Delta-E    RMSDP     MaxDP     DIISErr   Damp  Time(sec)
-------------------------------------------------------------------------------------------
               ***  Starting incremental Fock matrix formation  ***
    1    -117.6506831742062786     0.00e+00  3.14e-03  7.57e-02  2.07e-01  0.700  10.5
    2    -117.9597407147298327    -3.09e-01  2.27e-03  5.40e-02  1.19e-01  0.700   6.7
                               ***Turning on AO-DIIS***
    3    -118.1160176814787519    -1.56e-01  1.16e-03  2.83e-02  5.92e-02  0.700   7.1
    4    -118.2077202367825066    -9.17e-02  2.50e-03  5.90e-02  4.00e-02  0.000   6.9
    5    -118.4008848956659676    -1.93e-01  1.98e-04  4.80e-03  4.87e-03  0.000   6.9
                              *** Initializing SOSCF ***
---------------------------------------S-O-S-C-F--------------------------------------
Iteration    Energy (Eh)           Delta-E    RMSDP     MaxDP     MaxGrad    Time(sec)
--------------------------------------------------------------------------------------
    6    -118.4014019202292047    -5.17e-04  9.40e-05  3.18e-03  2.74e-03     7.3
               *** Restarting incremental Fock matrix formation ***
    7    -118.4014394827927390    -3.76e-05  5.23e-05  1.71e-03  1.75e-04     9.8
    8    -118.4014498727879072    -1.04e-05  2.56e-05  1.06e-03  1.63e-04     8.9
    9    -118.4014532376722855    -3.36e-06  6.59e-06  2.20e-04  3.20e-05     8.7
   10    -118.4014533564328531    -1.19e-07  1.74e-06  6.69e-05  1.08e-05     7.9
   11    -118.4014533682083083    -1.18e-08  7.32e-07  2.24e-05  3.33e-06     7.2
   12    -118.4014533884486582    -2.02e-08  1.62e-07  6.42e-06  9.61e-07     6.7
                  *** Gradient check signals convergence ***

               *****************************************************
               *                     SUCCESS                       *
               *           SCF CONVERGED AFTER  12 CYCLES          *
               *****************************************************

Recomputing exchange energy using gridx3       ... done (   12.378 sec)
Old exchange energy                            :    -17.967576775 Eh
New exchange energy                            :    -17.967563472 Eh
Exchange energy change after final integration :      0.000013302 Eh
Total energy after final integration           :   -118.401440086 Eh
             **** ENERGY FILE WAS UPDATED (./output/eudesmol/eudesmol.en.tmp) ****

----------------
TOTAL SCF ENERGY
----------------

Total Energy       :       -118.40144008605915 Eh           -3221.86698 eV

Components:
Nuclear Repulsion  :        692.17939450697952 Eh           18835.15889 eV
Electronic Energy  :       -810.58084789542818 Eh          -22057.02623 eV
One Electron Energy:      -1552.10845537214595 Eh          -42235.01826 eV
Two Electron Energy:        741.52760747671778 Eh           20177.99203 eV

Virial components:
Potential Energy   :       -211.15292753257867 Eh           -5745.76327 eV
Kinetic Energy     :         92.75148744651952 Eh            2523.89629 eV
Virial Ratio       :          2.27654491960929

DFT components:
N(Alpha)           :       46.999928086355 electrons
N(Beta)            :       46.999928086355 electrons
N(Total)           :       93.999856172711 electrons
E(X)               :      -18.669072292771 Eh       
E(C)               :       -3.533383591468 Eh       
E(XC)              :      -22.202455884239 Eh       

---------------
SCF CONVERGENCE
---------------

  Last Energy change         ...    2.0240e-08  Tolerance :   1.0000e-08
  Last MAX-Density change    ...    6.4152e-06  Tolerance :   1.0000e-07
  Last RMS-Density change    ...    1.6209e-07  Tolerance :   5.0000e-09
  Last DIIS Error            ...    2.7396e-03  Tolerance :   5.0000e-07
  Last Orbital Gradient      ...    9.6071e-07  Tolerance :   1.0000e-05
  Last Orbital Rotation      ...    1.5131e-06  Tolerance :   1.0000e-05


----------------
ORBITAL ENERGIES
----------------

  NO   OCC          E(Eh)            E(eV) 
   0   2.0000      -1.145598       -31.1733 
   1   2.0000      -0.990566       -26.9547 
   2   2.0000      -0.944381       -25.6979 
   3   2.0000      -0.918140       -24.9839 
   4   2.0000      -0.899212       -24.4688 
   5   2.0000      -0.870858       -23.6972 
   6   2.0000      -0.853063       -23.2130 
   7   2.0000      -0.817025       -22.2324 
   8   2.0000      -0.809811       -22.0361 
   9   2.0000      -0.796795       -21.6819 
  10   2.0000      -0.747137       -20.3306 
  11   2.0000      -0.734904       -19.9978 
  12   2.0000      -0.697988       -18.9932 
  13   2.0000      -0.692866       -18.8538 
  14   2.0000      -0.673514       -18.3272 
  15   2.0000      -0.637458       -17.3461 
  16   2.0000      -0.607904       -16.5419 
  17   2.0000      -0.588197       -16.0057 
  18   2.0000      -0.582783       -15.8583 
  19   2.0000      -0.573941       -15.6177 
  20   2.0000      -0.562040       -15.2939 
  21   2.0000      -0.550850       -14.9894 
  22   2.0000      -0.546148       -14.8615 
  23   2.0000      -0.534196       -14.5362 
  24   2.0000      -0.525710       -14.3053 
  25   2.0000      -0.515447       -14.0260 
  26   2.0000      -0.502951       -13.6860 
  27   2.0000      -0.499242       -13.5851 
  28   2.0000      -0.496203       -13.5024 
  29   2.0000      -0.493836       -13.4379 
  30   2.0000      -0.487166       -13.2565 
  31   2.0000      -0.478099       -13.0097 
  32   2.0000      -0.473775       -12.8921 
  33   2.0000      -0.459511       -12.5039 
  34   2.0000      -0.458497       -12.4763 
  35   2.0000      -0.450382       -12.2555 
  36   2.0000      -0.447943       -12.1892 
  37   2.0000      -0.440799       -11.9947 
  38   2.0000      -0.436029       -11.8650 
  39   2.0000      -0.429580       -11.6895 
  40   2.0000      -0.427263       -11.6264 
  41   2.0000      -0.418090       -11.3768 
  42   2.0000      -0.407922       -11.1001 
  43   2.0000      -0.391723       -10.6593 
  44   2.0000      -0.386902       -10.5281 
  45   2.0000      -0.374127       -10.1805 
  46   2.0000      -0.364189        -9.9101 
  47   0.0000       0.078753         2.1430 
  48   0.0000       0.085138         2.3167 
  49   0.0000       0.093483         2.5438 
  50   0.0000       0.096303         2.6205 
  51   0.0000       0.107498         2.9252 
  52   0.0000       0.110476         3.0062 
  53   0.0000       0.115573         3.1449 
  54   0.0000       0.119853         3.2614 
  55   0.0000       0.125110         3.4044 
  56   0.0000       0.133189         3.6243 
  57   0.0000       0.141019         3.8373 
*Only the first 10 virtual orbitals were printed.

                    ********************************
                    * MULLIKEN POPULATION ANALYSIS *
                    ********************************

-----------------------
MULLIKEN ATOMIC CHARGES
-----------------------
   0 C :   -0.069987
   1 C :   -0.079311
   2 C :   -0.050147
   3 C :   -0.058003
   4 C :   -0.030155
   5 C :   -0.201228
   6 C :   -0.034691
   7 C :   -0.030895
   8 C :   -0.061819
   9 C :   -0.051136
  10 C :   -0.012047
  11 C :   -0.044099
  12 C :   -0.038551
  13 C :   -0.048664
  14 O :   -0.301645
  15 C :   -0.012444
  16 H :    0.036415
  17 H :    0.033289
  18 H :    0.033751
  19 H :    0.036234
  20 H :    0.037854
  21 H :    0.031007
  22 H :    0.039181
  23 H :    0.030286
  24 H :    0.037905
  25 H :    0.032615
  26 H :    0.029923
  27 H :    0.061229
  28 H :    0.038466
  29 H :    0.028969
  30 H :    0.019933
  31 H :    0.043624
  32 H :    0.030752
  33 H :    0.031332
  34 H :    0.040040
  35 H :    0.042101
  36 H :    0.041226
  37 H :    0.022724
  38 H :    0.040075
  39 H :    0.044702
  40 H :    0.175149
  41 H :    0.023232
  42 H :    0.025800
  43 H :    0.037009
Sum of atomic charges:   -0.0000000

--------------------------------
MULLIKEN REDUCED ORBITAL CHARGES
--------------------------------
  0 C s       :     0.961233  s :     0.961233
      pz      :     1.035693  p :     3.034474
      px      :     1.035823
      py      :     0.962959
      dz2     :     0.015686  d :     0.074279
      dxz     :     0.015771
      dyz     :     0.009984
      dx2y2   :     0.011778
      dxy     :     0.021060

  1 C s       :     1.046296  s :     1.046296
      pz      :     1.022623  p :     2.911365
      px      :     0.942492
      py      :     0.946250
      dz2     :     0.030465  d :     0.121650
      dxz     :     0.020815
      dyz     :     0.014774
      dx2y2   :     0.026957
      dxy     :     0.028640

  2 C s       :     1.000358  s :     1.000358
      pz      :     1.012601  p :     2.950068
      px      :     0.967772
      py      :     0.969694
      dz2     :     0.025676  d :     0.099721
      dxz     :     0.015385
      dyz     :     0.013399
      dx2y2   :     0.017246
      dxy     :     0.028015

  3 C s       :     0.994807  s :     0.994807
      pz      :     1.040306  p :     2.963334
      px      :     0.996021
      py      :     0.927007
      dz2     :     0.018811  d :     0.099861
      dxz     :     0.022263
      dyz     :     0.013911
      dx2y2   :     0.023795
      dxy     :     0.021080

  4 C s       :     0.988982  s :     0.988982
      pz      :     0.998187  p :     2.942364
      px      :     0.939504
      py      :     1.004673
      dz2     :     0.028441  d :     0.098809
      dxz     :     0.017986
      dyz     :     0.006613
      dx2y2   :     0.022362
      dxy     :     0.023406

  5 C s       :     1.084757  s :     1.084757
      pz      :     0.990766  p :     2.978554
      px      :     0.993530
      py      :     0.994259
      dz2     :     0.030801  d :     0.137916
      dxz     :     0.028433
      dyz     :     0.023593
      dx2y2   :     0.026601
      dxy     :     0.028487

  6 C s       :     1.024446  s :     1.024446
      pz      :     1.020221  p :     2.891942
      px      :     0.936486
      py      :     0.935235
      dz2     :     0.030422  d :     0.118304
      dxz     :     0.019345
      dyz     :     0.013595
      dx2y2   :     0.026921
      dxy     :     0.028021

  7 C s       :     0.987549  s :     0.987549
      pz      :     1.017727  p :     2.949891
      px      :     0.931345
      py      :     1.000819
      dz2     :     0.024580  d :     0.093455
      dxz     :     0.014697
      dyz     :     0.012045
      dx2y2   :     0.018541
      dxy     :     0.023591

  8 C s       :     1.034763  s :     1.034763
      pz      :     0.993272  p :     2.912848
      px      :     0.941604
      py      :     0.977972
      dz2     :     0.021393  d :     0.114208
      dxz     :     0.014197
      dyz     :     0.030117
      dx2y2   :     0.023854
      dxy     :     0.024647

  9 C s       :     0.996407  s :     0.996407
      pz      :     0.980673  p :     2.955879
      px      :     0.977583
      py      :     0.997623
      dz2     :     0.022036  d :     0.098850
      dxz     :     0.014133
      dyz     :     0.022697
      dx2y2   :     0.014645
      dxy     :     0.025339

 10 C s       :     0.990891  s :     0.990891
      pz      :     1.031948  p :     2.926082
      px      :     0.914124
      py      :     0.980010
      dz2     :     0.017725  d :     0.095074
      dxz     :     0.014969
      dyz     :     0.019573
      dx2y2   :     0.023728
      dxy     :     0.019080

 11 C s       :     1.112352  s :     1.112352
      pz      :     0.879358  p :     2.739630
      px      :     0.965698
      py      :     0.894575
      dz2     :     0.041505  d :     0.192117
      dxz     :     0.032649
      dyz     :     0.042761
      dx2y2   :     0.033240
      dxy     :     0.041963

 12 C s       :     0.953368  s :     0.953368
      pz      :     0.952836  p :     3.015927
      px      :     1.045549
      py      :     1.017541
      dz2     :     0.016175  d :     0.069257
      dxz     :     0.007057
      dyz     :     0.018258
      dx2y2   :     0.012269
      dxy     :     0.015498

 13 C s       :     0.953917  s :     0.953917
      pz      :     1.029531  p :     3.024439
      px      :     1.009002
      py      :     0.985907
      dz2     :     0.014287  d :     0.070307
      dxz     :     0.003926
      dyz     :     0.021505
      dx2y2   :     0.016959
[...]
104:   3046.66   0.001730    8.75  0.000177  ( 0.001097 -0.003776  0.012720)
105:   3071.62   0.003305   16.70  0.000336  ( 0.008637  0.014925 -0.006200)
106:   3074.99   0.004668   23.59  0.000474  ( 0.000538  0.011273  0.018612)
107:   3080.59   0.005899   29.81  0.000598  (-0.004996 -0.011912  0.020753)
108:   3082.73   0.001575    7.96  0.000159  (-0.004605 -0.002018 -0.011583)
109:   3090.26   0.007618   38.50  0.000769  ( 0.011226 -0.024743  0.005570)
110:   3093.41   0.008364   42.27  0.000844  ( 0.002740 -0.028627  0.004097)
111:   3095.55   0.007015   35.45  0.000707  (-0.005463 -0.008562 -0.024577)
112:   3100.35   0.003700   18.70  0.000372  ( 0.015200  0.010781  0.005017)
113:   3101.33   0.006536   33.03  0.000658  (-0.012785  0.009074  0.020294)
114:   3104.97   0.003775   19.07  0.000379  ( 0.012781  0.013316  0.006220)
115:   3107.21   0.007909   39.97  0.000794  (-0.013841  0.018187 -0.016490)
116:   3115.49   0.004964   25.08  0.000497  (-0.010620  0.004917  0.018980)
117:   3129.02   0.006940   35.07  0.000692  (-0.013017  0.022490 -0.004117)
118:   3134.96   0.008725   44.09  0.000869  (-0.026867 -0.008803 -0.008319)
119:   3142.91   0.003616   18.28  0.000359  (-0.004292 -0.001285 -0.018412)
120:   3152.01   0.008646   43.69  0.000856  (-0.002070 -0.003276  0.029000)
121:   3162.44   0.007694   38.88  0.000759  ( 0.014408  0.020948 -0.010620)
122:   3171.13   0.003044   15.38  0.000300  (-0.000732 -0.010992  0.013348)
123:   3175.61   0.005493   27.76  0.000540  (-0.013219 -0.009600 -0.016520)
124:   3189.70   0.004032   20.38  0.000394  ( 0.005774 -0.014109 -0.012732)
125:   3199.14   0.003615   18.27  0.000353  ( 0.014744 -0.000802 -0.011602)
126:   3199.50   0.003643   18.41  0.000355  (-0.000203 -0.005105 -0.018144)
127:   3200.78   0.000974    4.92  0.000095  ( 0.006826 -0.005732 -0.003933)
128:   3207.33   0.005860   29.62  0.000570  (-0.019854  0.011387 -0.006807)
129:   3210.15   0.004125   20.84  0.000401  (-0.017621 -0.009493 -0.000588)
130:   3221.84   0.002548   12.88  0.000247  (-0.010244 -0.011485  0.003154)
131:   3956.20   0.005514   27.87  0.000435  (-0.002024 -0.005365 -0.020052)

* The epsilon (eps) is given for a Dirac delta lineshape.
** The dipole moment derivative (T) already includes vibrational overlap.

The first frequency considered to be a vibration is 6
The total number of vibrations considered is 126


--------------------------
THERMOCHEMISTRY AT 298.15K
--------------------------

Temperature         ...   298.15 K
Pressure            ...     1.00 atm
Total Mass          ...   224.39 AMU
Quasi RRHO          ...     True
Cut-Off Frequency   ...     1.00 cm^-1

Throughout the following assumptions are being made:
  (1) The electronic state is orbitally nondegenerate
  (2) There are no thermally accessible electronically excited states
  (3) Hindered rotations indicated by low frequency modes are not
      treated as such but are treated as vibrations and this may
      cause some error
  (4) All equations used are the standard statistical mechanics
      equations for an ideal gas
  (5) All vibrations are strictly harmonic

freq.      49.39  E(vib)   ...       0.52 
freq.      68.35  E(vib)   ...       0.50 
freq.     115.17  E(vib)   ...       0.44 
freq.     148.30  E(vib)   ...       0.41 
freq.     160.68  E(vib)   ...       0.39 
freq.     170.57  E(vib)   ...       0.38 
freq.     215.86  E(vib)   ...       0.34 
freq.     231.63  E(vib)   ...       0.32 
freq.     234.43  E(vib)   ...       0.32 
freq.     245.43  E(vib)   ...       0.31 
freq.     250.95  E(vib)   ...       0.30 
freq.     273.04  E(vib)   ...       0.29 
freq.     297.81  E(vib)   ...       0.27 
freq.     300.43  E(vib)   ...       0.26 
freq.     312.15  E(vib)   ...       0.25 
freq.     331.79  E(vib)   ...       0.24 
freq.     354.55  E(vib)   ...       0.22 
freq.     366.04  E(vib)   ...       0.22 
freq.     387.96  E(vib)   ...       0.20 
freq.     401.34  E(vib)   ...       0.19 
freq.     424.00  E(vib)   ...       0.18 
freq.     441.30  E(vib)   ...       0.17 
freq.     454.01  E(vib)   ...       0.16 
freq.     471.64  E(vib)   ...       0.15 
freq.     499.47  E(vib)   ...       0.14 
freq.     513.31  E(vib)   ...       0.13 
freq.     551.55  E(vib)   ...       0.12 
freq.     567.99  E(vib)   ...       0.11 
freq.     596.21  E(vib)   ...       0.10 
freq.     621.96  E(vib)   ...       0.09 
freq.     739.50  E(vib)   ...       0.06 
freq.     794.20  E(vib)   ...       0.05 
freq.     859.20  E(vib)   ...       0.04 
freq.     861.80  E(vib)   ...       0.04 
freq.     881.81  E(vib)   ...       0.04 
freq.     886.87  E(vib)   ...       0.04 
freq.     917.83  E(vib)   ...       0.03 
freq.     938.02  E(vib)   ...       0.03 
freq.     950.13  E(vib)   ...       0.03 
freq.     965.07  E(vib)   ...       0.03 
freq.     968.46  E(vib)   ...       0.03 
freq.     988.51  E(vib)   ...       0.02 
freq.     992.56  E(vib)   ...       0.02 
freq.    1002.32  E(vib)   ...       0.02 
freq.    1016.98  E(vib)   ...       0.02 
freq.    1025.48  E(vib)   ...       0.02 
freq.    1032.02  E(vib)   ...       0.02 
freq.    1062.56  E(vib)   ...       0.02 
freq.    1073.02  E(vib)   ...       0.02 
freq.    1094.79  E(vib)   ...       0.02 
freq.    1103.18  E(vib)   ...       0.02 
freq.    1116.50  E(vib)   ...       0.01 
freq.    1136.28  E(vib)   ...       0.01 
freq.    1153.91  E(vib)   ...       0.01 
freq.    1184.39  E(vib)   ...       0.01 
freq.    1190.22  E(vib)   ...       0.01 
freq.    1200.53  E(vib)   ...       0.01 
freq.    1204.18  E(vib)   ...       0.01 
freq.    1211.22  E(vib)   ...       0.01 
freq.    1232.27  E(vib)   ...       0.01 
freq.    1246.83  E(vib)   ...       0.01 
freq.    1273.98  E(vib)   ...       0.01 
freq.    1288.59  E(vib)   ...       0.01 
freq.    1293.57  E(vib)   ...       0.01 
freq.    1306.37  E(vib)   ...       0.01 
freq.    1317.51  E(vib)   ...       0.01 
freq.    1346.22  E(vib)   ...       0.01 
freq.    1351.69  E(vib)   ...       0.01 
freq.    1361.78  E(vib)   ...       0.01 
freq.    1372.32  E(vib)   ...       0.01 
freq.    1379.58  E(vib)   ...       0.01 
freq.    1387.36  E(vib)   ...       0.00 
freq.    1404.86  E(vib)   ...       0.00 
freq.    1411.40  E(vib)   ...       0.00 
freq.    1415.84  E(vib)   ...       0.00 
freq.    1419.27  E(vib)   ...       0.00 
freq.    1425.58  E(vib)   ...       0.00 
freq.    1437.22  E(vib)   ...       0.00 
freq.    1440.08  E(vib)   ...       0.00 
freq.    1443.15  E(vib)   ...       0.00 
freq.    1446.77  E(vib)   ...       0.00 
freq.    1452.73  E(vib)   ...       0.00 
freq.    1453.35  E(vib)   ...       0.00 
freq.    1458.69  E(vib)   ...       0.00 
freq.    1506.53  E(vib)   ...       0.00 
freq.    1508.48  E(vib)   ...       0.00 
freq.    1512.54  E(vib)   ...       0.00 
freq.    1518.73  E(vib)   ...       0.00 
freq.    1520.41  E(vib)   ...       0.00 
freq.    1524.99  E(vib)   ...       0.00 
freq.    1526.89  E(vib)   ...       0.00 
freq.    1530.62  E(vib)   ...       0.00 
freq.    1530.90  E(vib)   ...       0.00 
freq.    1533.14  E(vib)   ...       0.00 
freq.    1538.41  E(vib)   ...       0.00 
freq.    1541.88  E(vib)   ...       0.00 
freq.    1545.26  E(vib)   ...       0.00 
freq.    1547.44  E(vib)   ...       0.00 
freq.    3046.66  E(vib)   ...       0.00 
freq.    3071.62  E(vib)   ...       0.00 
freq.    3074.99  E(vib)   ...       0.00 
freq.    3080.59  E(vib)   ...       0.00 
freq.    3082.73  E(vib)   ...       0.00 
freq.    3090.26  E(vib)   ...       0.00 
freq.    3093.41  E(vib)   ...       0.00 
freq.    3095.55  E(vib)   ...       0.00 
freq.    3100.35  E(vib)   ...       0.00 
freq.    3101.33  E(vib)   ...       0.00 
freq.    3104.97  E(vib)   ...       0.00 
freq.    3107.21  E(vib)   ...       0.00 
freq.    3115.49  E(vib)   ...       0.00 
freq.    3129.02  E(vib)   ...       0.00 
freq.    3134.96  E(vib)   ...       0.00 
freq.    3142.91  E(vib)   ...       0.00 
freq.    3152.01  E(vib)   ...       0.00 
freq.    3162.44  E(vib)   ...       0.00 
freq.    3171.13  E(vib)   ...       0.00 
freq.    3175.61  E(vib)   ...       0.00 
freq.    3189.70  E(vib)   ...       0.00 
freq.    3199.14  E(vib)   ...       0.00 
freq.    3199.50  E(vib)   ...       0.00 
freq.    3200.78  E(vib)   ...       0.00 
freq.    3207.33  E(vib)   ...       0.00 
freq.    3210.15  E(vib)   ...       0.00 
freq.    3221.84  E(vib)   ...       0.00 
freq.    3956.20  E(vib)   ...       0.00 

------------
INNER ENERGY
------------

The inner energy is: U= E(el) + E(ZPE) + E(vib) + E(rot) + E(trans)
    E(el)   - is the total energy from the electronic structure calculation
              = E(kin-el) + E(nuc-el) + E(el-el) + E(nuc-nuc)
    E(ZPE)  - the the zero temperature vibrational energy from the frequency calculation
    E(vib)  - the the finite temperature correction to E(ZPE) due to population
              of excited vibrational states
    E(rot)  - is the rotational thermal energy
    E(trans)- is the translational thermal energy

Summary of contributions to the inner energy U:
Electronic energy                ...   -118.47548816 Eh
Zero point energy                ...      0.41913708 Eh     263.01 kcal/mol
Thermal vibrational correction   ...      0.01373916 Eh       8.62 kcal/mol
Thermal rotational correction    ...      0.00141627 Eh       0.89 kcal/mol
Thermal translational correction ...      0.00141627 Eh       0.89 kcal/mol
-----------------------------------------------------------------------
Total thermal energy                   -118.03977938 Eh


Summary of corrections to the electronic energy:
(perhaps to be used in another calculation)
Total thermal correction                  0.01657171 Eh      10.40 kcal/mol
Non-thermal (ZPE) correction              0.41913708 Eh     263.01 kcal/mol
-----------------------------------------------------------------------
Total correction                          0.43570879 Eh     273.41 kcal/mol


--------
ENTHALPY
--------

The enthalpy is H = U + kB*T
                kB is Boltzmann's constant
Total thermal energy              ...   -118.03977938 Eh 
Thermal Enthalpy correction       ...      0.00094421 Eh       0.59 kcal/mol
-----------------------------------------------------------------------
Total Enthalpy                    ...   -118.03883517 Eh


Note: Only C1 symmetry has been detected, increase convergence thresholds 
      if your molecule has a higher symmetry. Symmetry factor of 1.0 is   
      used for the rotational entropy correction. 
 

Note: Rotational entropy computed according to Herzberg 
Infrared and Raman Spectra, Chapter V,1, Van Nostrand Reinhold, 1945 
Point Group:  C1, Symmetry Number:   1  
Rotational constants in cm-1:     0.031411     0.011412     0.009674 

Vibrational entropy computed according to the QRRHO of S. Grimme
Chem.Eur.J. 2012 18 9955 using a reference frequency of 100.0 cm-1


-------
ENTROPY
-------

The entropy contributions are T*S = T*(S(el)+S(vib)+S(rot)+S(trans))
     S(el)   - electronic entropy
     S(vib)  - vibrational entropy
     S(rot)  - rotational entropy
     S(trans)- translational entropy
The entropies will be listed as multiplied by the temperature to get
units of energy

Electronic entropy                ...      0.00000000 Eh      0.00 kcal/mol
Vibrational entropy               ...      0.02284216 Eh     14.33 kcal/mol
Rotational entropy                ...      0.01544593 Eh      9.69 kcal/mol
Translational entropy             ...      0.02001588 Eh     12.56 kcal/mol
-----------------------------------------------------------------------
Final entropy term                ...      0.05830397 Eh     36.59 kcal/mol

In case the symmetry of your molecule has not been determined correctly
or in case you have a reason to use a different symmetry number we print 
out the resulting rotational entropy values for sn=1,12:

 non-linear molecules -----------------------------------
|  sn= 1 | S(rot)=       0.01544593 Eh      9.69 kcal/mol|
|  sn= 2 | S(rot)=       0.01479147 Eh      9.28 kcal/mol|
|  sn= 3 | S(rot)=       0.01440864 Eh      9.04 kcal/mol|
|  sn= 4 | S(rot)=       0.01413702 Eh      8.87 kcal/mol|
|  sn= 5 | S(rot)=       0.01392633 Eh      8.74 kcal/mol|
|  sn= 6 | S(rot)=       0.01375418 Eh      8.63 kcal/mol|
|  sn= 7 | S(rot)=       0.01360864 Eh      8.54 kcal/mol|
|  sn= 8 | S(rot)=       0.01348256 Eh      8.46 kcal/mol|
|  sn= 9 | S(rot)=       0.01337135 Eh      8.39 kcal/mol|
|  sn=10 | S(rot)=       0.01327187 Eh      8.33 kcal/mol|
|  sn=11 | S(rot)=       0.01318188 Eh      8.27 kcal/mol|
|  sn=12 | S(rot)=       0.01309973 Eh      8.22 kcal/mol|
 linear molecules ---------------------------------------
|  Dinfh | S(rot)=       0.00970525 Eh      6.09 kcal/mol|
|  Cinfv | S(rot)=       0.01035970 Eh      6.50 kcal/mol|
 --------------------------------------------------------


-------------------
GIBBS FREE ENERGY
-------------------

The Gibbs free energy is G = H - T*S

Total enthalpy                    ...   -118.03883517 Eh 
Total entropy correction          ...     -0.05830397 Eh    -36.59 kcal/mol
-----------------------------------------------------------------------
Final Gibbs free energy         ...   -118.09713914 Eh

For completeness - the Gibbs free energy minus the electronic energy
G-E(el)                           ...      0.37834902 Eh    237.42 kcal/mol


Maximum memory used throughout the entire PROP-calculation: 299.2 MB

--------------------------------
SUGGESTED CITATIONS FOR THIS RUN
--------------------------------

Below you find a list of papers that are relevant to this ORCA run
We neither can nor want to force you to cite these papers, but we appreciate if you do
You receive ORCA, which is the product of decades of hard work by many enthusiastic individuals, for free
The only thing we kindly ask in return is that you cite our papers,
We deeply appreciate it, if you show your appreciation for ORCA by not just citing the generic ORCA reference.

Please note that relegating all ORCA citations to the supporting information does *not* help us.
SI sections are not indexed - citations you put there will not count into any citation statistics
But we need these citations in order to attract the funding resources that allow us to do what we are doing

Therefore, if you are a happy ORCA user, please consider citing a few of the papers listed below in the main body of your paper

In addition to the list printed below, the program has created the file ./output/eudesmol/eudesmol.bibtex that contains the list in bibtex format
You can import this file easily into all common literature databanks and citation aid programs


List of essential papers. We consider these as the minimum necessary citations

  1. Neese,F.
     Software update: the ORCA program system, version 5.0
     WIRES Comput. Molec. Sci., 2022 12(1)e1606
     doi.org/10.1002/wcms.1606
  2. Mueller,M.; Hansen,A.; Grimme,S.
     wB97X-3c: A composite range-separated hybrid DFT method with a molecule-optimized polarized valence double-zeta basis set
     J. Chem. Phys., 2023 158 014103
     doi.org/10.1063/5.0133026

List of papers to cite with high priority. The work reported in these papers was absolutely
necessary for this run to complete.
Our perspective: the developers of density functionals and basis sets usually get cited in chemistry papers
Good! But without the algorithms to do something with them, the functionals or basis sets would not do anything.
Hence, in our opinion, the algorithm design and method developments papers are equally worthy of getting cited

  1. Neese,F.
     An improvement of the resolution of the identity approximation for the formation of the Coulomb matrix
     J. Comp. Chem., 2003 24(14)1740-1747
     doi.org/10.1002/jcc.10318
  2. Neese,F.; Wennmohs,F.; Hansen,A.; Becker,U.
     Efficient, approximate and parallel Hartree-Fock and hybrid DFT calculations. A 'chain-of-spheres' algorithm for the Hartree-Fock exchange
     Chem. Phys., 2009 356(1-3)98-109
     doi.org/10.1016/j.chemphys.2008.10.036
  3. Bykov,D.; Petrenko,T.; Izsak,R.; Kossmann,S.; Becker,U.; Valeev,E.; Neese,F.
     Efficient implementation of the analytic second derivatives of Hartree-Fock and hybrid DFT energies: a detailed analysis of different approximations
     Molec. Phys., 2015 113 1961-1977
     doi.org/10.1080/00268976.2015.1025114
  4. Helmich-Paris,B.; de Souza,B.; Neese,F.; Izsák,R.
     An improved chain of spheres for exchange algorithm
     J. Chem. Phys., 2021 155 104109
     doi.org/doi: 10.1063/5.0058766.
  5. Neese,F.
     The SHARK Integral Generation and Digestion System
     J. Comp. Chem., 2022  1-16
     doi.org/10.1002/jcc.26942
  6. Caldeweyher,E.; Bannwarth,C.; Grimme,S.
     Extension of the D3 dispersion coefficient model
     J. Chem. Phys., 2017 147 034112
     doi.org/10.1063/1.4993215
  7. Caldeweyher,E.; Ehlert,S.; Hansen,A.; Neugebauer,H.; Spicher,S.; Bannwarth,C.; Grimme,S.
     A generally applicable atomic-charge dependent London dispersion correction
     J. Chem. Phys., 2019 150 154122
     doi.org/10.1063/1.5090222
  8. Caldeweyher,E.; Mewes,J.; Ehlert,S.; Grimme,S.
     Extension and evaluation of the D4 London-dispersion model for periodic systems
     Phys. Chem. Chem. Phys., 2020 22(16)8499-8512
     doi.org/10.1039/D0CP00502A
  9. Wittmann,L.; Gordiy,I.; Friede,M.; Helmich-Paris,B.; Grimme,S.; Hansen,A.; Bursch,M.
     Extension of the D3 and D4 London Dispersion Corrections to the full Actinides Series
     Phys. Chem. Chem. Phys., 2024 26(32)21379-21394
     doi.org/https://doi.org/10.1039/D4CP01514B 

List of suggested additional citations. These are papers that are important in the 'surrounding' of 
of this run, or papers that preceded the highly important papers. If you like your results we are grateful for a citation.

  1. Izsak,R.; Neese,F.
     An overlap fitted chain of spheres exchange method
     J. Chem. Phys., 2011 135 144105
     doi.org/10.1063/1.3646921
  2. Izsak,R.; Hansen,A.; Neese,F.
     The resolution of identity and chain of spheres approximations for the LPNO-CCSD singles Fock term
     Molec. Phys., 2012 110 2413-2417
     doi.org/10.1080/00268976.2012.687466
  3. Neese,F.
     The ORCA program system
     WIRES Comput. Molec. Sci., 2012 2(1)73-78
     doi.org/10.1002/wcms.81
  4. Izsak,R.; Neese,F.; Klopper,W.
     Robust fitting techniques in the chain of spheres approximation to the Fock exchange: The role of the complementary space
     J. Chem. Phys., 2013 139 
     doi.org/10.1063/1.4819264
  5. Neese,F.
     Software update: the ORCA program system, version 4.0
     WIRES Comput. Molec. Sci., 2018 8(1)1-6
     doi.org/10.1002/wcms.1327
  6. Neese,F.; Wennmohs,F.; Becker,U.; Riplinger,C.
     The ORCA quantum chemistry program package
     J. Chem. Phys., 2020 152 Art. No. L224108
     doi.org/10.1063/5.0004608

List of optional additional citations

  1. Neese,F.
     Approximate second-order SCF convergence for spin unrestricted wavefunctions
     Chem. Phys. Lett., 2000 325(1-3)93-98
     doi.org/10.1016/s0009-2614(00)00662-x

Timings for individual modules:

Sum of individual times          ...     1461.586 sec (=  24.360 min)
Startup calculation              ...       49.592 sec (=   0.827 min)   3.4 %
SCF iterations                   ...      686.141 sec (=  11.436 min)  46.9 %
Property integrals               ...      173.543 sec (=   2.892 min)  11.9 %
SCF Response                     ...      112.782 sec (=   1.880 min)   7.7 %
Property calculations            ...      288.871 sec (=   4.815 min)  19.8 %
SCF Gradient evaluation          ...      150.360 sec (=   2.506 min)  10.3 %
Geometry relaxation              ...        0.295 sec (=   0.005 min)   0.0 %
                             ****ORCA TERMINATED NORMALLY****
TOTAL RUN TIME: 0 days 0 hours 24 minutes 25 seconds 695 msec
